n -t * -s 0  -x 601 -y 400 -Z 0 -z 20  -v circle -c green
n -t * -s 1  -x 801 -y 400 -Z 0 -z 20  -v circle -c green
V -t * -v 1.0a5 -a 0
W -t * -x 901 -y 500
A -t * -n 1 -p 0 -o 0x7fffffff -c 30 -a 1
A -t * -h 1 -m 1073741823 -s 0
+ -t 0.000000000 -s 0 -d -1 -p cbr -e 1000 -c 2 -a 0 -i 0 -k AGT 
- -t 0.000000000 -s 0 -d -1 -p cbr -e 1000 -c 2 -a 0 -i 0 -k AGT
h -t 0.000000000 -s 0 -d -1 -p cbr -e 1000 -c 2 -a 0 -i 0 -k AGT
+ -t 0.000142047 -s 0 -d -1 -p DSR -e 32 -c 2 -a 0 -i 1 -k RTR 
- -t 0.000142047 -s 0 -d -1 -p DSR -e 32 -c 2 -a 0 -i 1 -k RTR
h -t 0.000142047 -s 0 -d -1 -p DSR -e 32 -c 2 -a 0 -i 1 -k RTR
+ -t 0.004000000 -s 0 -d -1 -p cbr -e 1000 -c 2 -a 0 -i 2 -k AGT 
- -t 0.004000000 -s 0 -d -1 -p cbr -e 1000 -c 2 -a 0 -i 2 -k AGT
h -t 0.004000000 -s 0 -d -1 -p cbr -e 1000 -c 2 -a 0 -i 2 -k AGT
+ -t 0.008000000 -s 0 -d -1 -p cbr -e 1000 -c 2 -a 0 -i 4 -k AGT 
- -t 0.008000000 -s 0 -d -1 -p cbr -e 1000 -c 2 -a 0 -i 4 -k AGT
h -t 0.008000000 -s 0 -d -1 -p cbr -e 1000 -c 2 -a 0 -i 4 -k AGT
+ -t 0.012000000 -s 0 -d -1 -p cbr -e 1000 -c 2 -a 0 -i 6 -k AGT 
- -t 0.012000000 -s 0 -d -1 -p cbr -e 1000 -c 2 -a 0 -i 6 -k AGT
h -t 0.012000000 -s 0 -d -1 -p cbr -e 1000 -c 2 -a 0 -i 6 -k AGT
+ -t 0.016000000 -s 0 -d -1 -p cbr -e 1000 -c 2 -a 0 -i 8 -k AGT 
- -t 0.016000000 -s 0 -d -1 -p cbr -e 1000 -c 2 -a 0 -i 8 -k AGT
h -t 0.016000000 -s 0 -d -1 -p cbr -e 1000 -c 2 -a 0 -i 8 -k AGT
+ -t 0.020000000 -s 0 -d -1 -p cbr -e 1000 -c 2 -a 0 -i 10 -k AGT 
- -t 0.020000000 -s 0 -d -1 -p cbr -e 1000 -c 2 -a 0 -i 10 -k AGT
h -t 0.020000000 -s 0 -d -1 -p cbr -e 1000 -c 2 -a 0 -i 10 -k AGT
+ -t 0.022167047 -s 0 -d -1 -p DSR -e 32 -c 2 -a 0 -i 1 -k MAC 
- -t 0.022167047 -s 0 -d -1 -p DSR -e 32 -c 2 -a 0 -i 1 -k MAC
h -t 0.022167047 -s 0 -d -1 -p DSR -e 32 -c 2 -a 0 -i 1 -k MAC
+ -t 0.024000000 -s 0 -d -1 -p cbr -e 1000 -c 2 -a 0 -i 12 -k AGT 
- -t 0.024000000 -s 0 -d -1 -p cbr -e 1000 -c 2 -a 0 -i 12 -k AGT
h -t 0.024000000 -s 0 -d -1 -p cbr -e 1000 -c 2 -a 0 -i 12 -k AGT
+ -t 0.028000000 -s 0 -d -1 -p cbr -e 1000 -c 2 -a 0 -i 14 -k AGT 
- -t 0.028000000 -s 0 -d -1 -p cbr -e 1000 -c 2 -a 0 -i 14 -k AGT
h -t 0.028000000 -s 0 -d -1 -p cbr -e 1000 -c 2 -a 0 -i 14 -k AGT
+ -t 0.032000000 -s 0 -d -1 -p cbr -e 1000 -c 2 -a 0 -i 24 -k AGT 
- -t 0.032000000 -s 0 -d -1 -p cbr -e 1000 -c 2 -a 0 -i 24 -k AGT
h -t 0.032000000 -s 0 -d -1 -p cbr -e 1000 -c 2 -a 0 -i 24 -k AGT
+ -t 0.034421921 -s 0 -d -1 -p DSR -e 32 -c 2 -a 0 -i 16 -k RTR 
- -t 0.034421921 -s 0 -d -1 -p DSR -e 32 -c 2 -a 0 -i 16 -k RTR
h -t 0.034421921 -s 0 -d -1 -p DSR -e 32 -c 2 -a 0 -i 16 -k RTR
+ -t 0.036000000 -s 0 -d -1 -p cbr -e 1000 -c 2 -a 0 -i 26 -k AGT 
- -t 0.036000000 -s 0 -d -1 -p cbr -e 1000 -c 2 -a 0 -i 26 -k AGT
h -t 0.036000000 -s 0 -d -1 -p cbr -e 1000 -c 2 -a 0 -i 26 -k AGT
+ -t 0.040000000 -s 0 -d -1 -p cbr -e 1000 -c 2 -a 0 -i 28 -k AGT 
- -t 0.040000000 -s 0 -d -1 -p cbr -e 1000 -c 2 -a 0 -i 28 -k AGT
h -t 0.040000000 -s 0 -d -1 -p cbr -e 1000 -c 2 -a 0 -i 28 -k AGT
+ -t 0.044000000 -s 0 -d -1 -p cbr -e 1000 -c 2 -a 0 -i 30 -k AGT 
- -t 0.044000000 -s 0 -d -1 -p cbr -e 1000 -c 2 -a 0 -i 30 -k AGT
h -t 0.044000000 -s 0 -d -1 -p cbr -e 1000 -c 2 -a 0 -i 30 -k AGT
+ -t 0.048000000 -s 0 -d -1 -p cbr -e 1000 -c 2 -a 0 -i 32 -k AGT 
- -t 0.048000000 -s 0 -d -1 -p cbr -e 1000 -c 2 -a 0 -i 32 -k AGT
h -t 0.048000000 -s 0 -d -1 -p cbr -e 1000 -c 2 -a 0 -i 32 -k AGT
+ -t 0.052000000 -s 0 -d -1 -p cbr -e 1000 -c 2 -a 0 -i 34 -k AGT 
- -t 0.052000000 -s 0 -d -1 -p cbr -e 1000 -c 2 -a 0 -i 34 -k AGT
h -t 0.052000000 -s 0 -d -1 -p cbr -e 1000 -c 2 -a 0 -i 34 -k AGT
+ -t 0.056000000 -s 0 -d -1 -p cbr -e 1000 -c 2 -a 0 -i 36 -k AGT 
- -t 0.056000000 -s 0 -d -1 -p cbr -e 1000 -c 2 -a 0 -i 36 -k AGT
h -t 0.056000000 -s 0 -d -1 -p cbr -e 1000 -c 2 -a 0 -i 36 -k AGT
+ -t 0.060000000 -s 0 -d -1 -p cbr -e 1000 -c 2 -a 0 -i 38 -k AGT 
- -t 0.060000000 -s 0 -d -1 -p cbr -e 1000 -c 2 -a 0 -i 38 -k AGT
h -t 0.060000000 -s 0 -d -1 -p cbr -e 1000 -c 2 -a 0 -i 38 -k AGT
+ -t 0.064000000 -s 0 -d -1 -p cbr -e 1000 -c 2 -a 0 -i 40 -k AGT 
- -t 0.064000000 -s 0 -d -1 -p cbr -e 1000 -c 2 -a 0 -i 40 -k AGT
h -t 0.064000000 -s 0 -d -1 -p cbr -e 1000 -c 2 -a 0 -i 40 -k AGT
r -t 0.065167713 -s 1 -d -1 -p DSR -e 32 -c 2 -a 0 -i 1 -k MAC
+ -t 0.067538731 -s 1 -d 0 -p DSR -e 44 -c 2 -a 0 -i 42 -k RTR 
- -t 0.067538731 -s 1 -d 0 -p DSR -e 44 -c 2 -a 0 -i 42 -k RTR
h -t 0.067538731 -s 1 -d 0 -p DSR -e 44 -c 2 -a 0 -i 42 -k RTR
+ -t 0.068000000 -s 0 -d -1 -p cbr -e 1000 -c 2 -a 0 -i 43 -k AGT 
- -t 0.068000000 -s 0 -d -1 -p cbr -e 1000 -c 2 -a 0 -i 43 -k AGT
h -t 0.068000000 -s 0 -d -1 -p cbr -e 1000 -c 2 -a 0 -i 43 -k AGT
+ -t 0.072000000 -s 0 -d -1 -p cbr -e 1000 -c 2 -a 0 -i 45 -k AGT 
- -t 0.072000000 -s 0 -d -1 -p cbr -e 1000 -c 2 -a 0 -i 45 -k AGT
h -t 0.072000000 -s 0 -d -1 -p cbr -e 1000 -c 2 -a 0 -i 45 -k AGT
+ -t 0.076000000 -s 0 -d -1 -p cbr -e 1000 -c 2 -a 0 -i 47 -k AGT 
- -t 0.076000000 -s 0 -d -1 -p cbr -e 1000 -c 2 -a 0 -i 47 -k AGT
h -t 0.076000000 -s 0 -d -1 -p cbr -e 1000 -c 2 -a 0 -i 47 -k AGT
+ -t 0.080000000 -s 0 -d -1 -p cbr -e 1000 -c 2 -a 0 -i 49 -k AGT 
- -t 0.080000000 -s 0 -d -1 -p cbr -e 1000 -c 2 -a 0 -i 49 -k AGT
h -t 0.080000000 -s 0 -d -1 -p cbr -e 1000 -c 2 -a 0 -i 49 -k AGT
+ -t 0.084000000 -s 0 -d -1 -p cbr -e 1000 -c 2 -a 0 -i 72 -k AGT 
- -t 0.084000000 -s 0 -d -1 -p cbr -e 1000 -c 2 -a 0 -i 72 -k AGT
h -t 0.084000000 -s 0 -d -1 -p cbr -e 1000 -c 2 -a 0 -i 72 -k AGT
+ -t 0.088000000 -s 0 -d -1 -p cbr -e 1000 -c 2 -a 0 -i 74 -k AGT 
- -t 0.088000000 -s 0 -d -1 -p cbr -e 1000 -c 2 -a 0 -i 74 -k AGT
h -t 0.088000000 -s 0 -d -1 -p cbr -e 1000 -c 2 -a 0 -i 74 -k AGT
+ -t 0.092000000 -s 0 -d -1 -p cbr -e 1000 -c 2 -a 0 -i 76 -k AGT 
- -t 0.092000000 -s 0 -d -1 -p cbr -e 1000 -c 2 -a 0 -i 76 -k AGT
h -t 0.092000000 -s 0 -d -1 -p cbr -e 1000 -c 2 -a 0 -i 76 -k AGT
+ -t 0.096000000 -s 0 -d -1 -p cbr -e 1000 -c 2 -a 0 -i 78 -k AGT 
- -t 0.096000000 -s 0 -d -1 -p cbr -e 1000 -c 2 -a 0 -i 78 -k AGT
h -t 0.096000000 -s 0 -d -1 -p cbr -e 1000 -c 2 -a 0 -i 78 -k AGT
+ -t 0.100000000 -s 0 -d -1 -p cbr -e 1000 -c 2 -a 0 -i 80 -k AGT 
- -t 0.100000000 -s 0 -d -1 -p cbr -e 1000 -c 2 -a 0 -i 80 -k AGT
h -t 0.100000000 -s 0 -d -1 -p cbr -e 1000 -c 2 -a 0 -i 80 -k AGT
+ -t 0.104000000 -s 0 -d -1 -p cbr -e 1000 -c 2 -a 0 -i 82 -k AGT 
- -t 0.104000000 -s 0 -d -1 -p cbr -e 1000 -c 2 -a 0 -i 82 -k AGT
h -t 0.104000000 -s 0 -d -1 -p cbr -e 1000 -c 2 -a 0 -i 82 -k AGT
+ -t 0.105167047 -s 0 -d -1 -p DSR -e 32 -c 2 -a 0 -i 16 -k MAC 
- -t 0.105167047 -s 0 -d -1 -p DSR -e 32 -c 2 -a 0 -i 16 -k MAC
h -t 0.105167047 -s 0 -d -1 -p DSR -e 32 -c 2 -a 0 -i 16 -k MAC
+ -t 0.108000000 -s 0 -d -1 -p cbr -e 1000 -c 2 -a 0 -i 84 -k AGT 
- -t 0.108000000 -s 0 -d -1 -p cbr -e 1000 -c 2 -a 0 -i 84 -k AGT
h -t 0.108000000 -s 0 -d -1 -p cbr -e 1000 -c 2 -a 0 -i 84 -k AGT
+ -t 0.112000000 -s 0 -d -1 -p cbr -e 1000 -c 2 -a 0 -i 86 -k AGT 
- -t 0.112000000 -s 0 -d -1 -p cbr -e 1000 -c 2 -a 0 -i 86 -k AGT
h -t 0.112000000 -s 0 -d -1 -p cbr -e 1000 -c 2 -a 0 -i 86 -k AGT
+ -t 0.116000000 -s 0 -d -1 -p cbr -e 1000 -c 2 -a 0 -i 88 -k AGT 
- -t 0.116000000 -s 0 -d -1 -p cbr -e 1000 -c 2 -a 0 -i 88 -k AGT
h -t 0.116000000 -s 0 -d -1 -p cbr -e 1000 -c 2 -a 0 -i 88 -k AGT
+ -t 0.120000000 -s 0 -d -1 -p cbr -e 1000 -c 2 -a 0 -i 90 -k AGT 
- -t 0.120000000 -s 0 -d -1 -p cbr -e 1000 -c 2 -a 0 -i 90 -k AGT
h -t 0.120000000 -s 0 -d -1 -p cbr -e 1000 -c 2 -a 0 -i 90 -k AGT
+ -t 0.124000000 -s 0 -d -1 -p cbr -e 1000 -c 2 -a 0 -i 123 -k AGT 
- -t 0.124000000 -s 0 -d -1 -p cbr -e 1000 -c 2 -a 0 -i 123 -k AGT
h -t 0.124000000 -s 0 -d -1 -p cbr -e 1000 -c 2 -a 0 -i 123 -k AGT
+ -t 0.128000000 -s 0 -d -1 -p cbr -e 1000 -c 2 -a 0 -i 125 -k AGT 
- -t 0.128000000 -s 0 -d -1 -p cbr -e 1000 -c 2 -a 0 -i 125 -k AGT
h -t 0.128000000 -s 0 -d -1 -p cbr -e 1000 -c 2 -a 0 -i 125 -k AGT
+ -t 0.132000000 -s 0 -d -1 -p cbr -e 1000 -c 2 -a 0 -i 127 -k AGT 
- -t 0.132000000 -s 0 -d -1 -p cbr -e 1000 -c 2 -a 0 -i 127 -k AGT
h -t 0.132000000 -s 0 -d -1 -p cbr -e 1000 -c 2 -a 0 -i 127 -k AGT
+ -t 0.136000000 -s 0 -d -1 -p cbr -e 1000 -c 2 -a 0 -i 129 -k AGT 
- -t 0.136000000 -s 0 -d -1 -p cbr -e 1000 -c 2 -a 0 -i 129 -k AGT
h -t 0.136000000 -s 0 -d -1 -p cbr -e 1000 -c 2 -a 0 -i 129 -k AGT
+ -t 0.140000000 -s 0 -d -1 -p cbr -e 1000 -c 2 -a 0 -i 131 -k AGT 
- -t 0.140000000 -s 0 -d -1 -p cbr -e 1000 -c 2 -a 0 -i 131 -k AGT
h -t 0.140000000 -s 0 -d -1 -p cbr -e 1000 -c 2 -a 0 -i 131 -k AGT
+ -t 0.144000000 -s 0 -d -1 -p cbr -e 1000 -c 2 -a 0 -i 133 -k AGT 
- -t 0.144000000 -s 0 -d -1 -p cbr -e 1000 -c 2 -a 0 -i 133 -k AGT
h -t 0.144000000 -s 0 -d -1 -p cbr -e 1000 -c 2 -a 0 -i 133 -k AGT
+ -t 0.148000000 -s 0 -d -1 -p cbr -e 1000 -c 2 -a 0 -i 135 -k AGT 
- -t 0.148000000 -s 0 -d -1 -p cbr -e 1000 -c 2 -a 0 -i 135 -k AGT
h -t 0.148000000 -s 0 -d -1 -p cbr -e 1000 -c 2 -a 0 -i 135 -k AGT
r -t 0.148167713 -s 1 -d -1 -p DSR -e 32 -c 2 -a 0 -i 16 -k MAC
+ -t 0.149330796 -s 1 -d 0 -p DSR -e 44 -c 2 -a 0 -i 137 -k RTR 
- -t 0.149330796 -s 1 -d 0 -p DSR -e 44 -c 2 -a 0 -i 137 -k RTR
h -t 0.149330796 -s 1 -d 0 -p DSR -e 44 -c 2 -a 0 -i 137 -k RTR
d -t 0.149330796 -s 1 -d 0 -p DSR -e 44 -c 2 -a 0 -i 42 -k IFQ
+ -t 0.152000000 -s 0 -d -1 -p cbr -e 1000 -c 2 -a 0 -i 138 -k AGT 
- -t 0.152000000 -s 0 -d -1 -p cbr -e 1000 -c 2 -a 0 -i 138 -k AGT
h -t 0.152000000 -s 0 -d -1 -p cbr -e 1000 -c 2 -a 0 -i 138 -k AGT
+ -t 0.156000000 -s 0 -d -1 -p cbr -e 1000 -c 2 -a 0 -i 140 -k AGT 
- -t 0.156000000 -s 0 -d -1 -p cbr -e 1000 -c 2 -a 0 -i 140 -k AGT
h -t 0.156000000 -s 0 -d -1 -p cbr -e 1000 -c 2 -a 0 -i 140 -k AGT
+ -t 0.160000000 -s 0 -d -1 -p cbr -e 1000 -c 2 -a 0 -i 182 -k AGT 
- -t 0.160000000 -s 0 -d -1 -p cbr -e 1000 -c 2 -a 0 -i 182 -k AGT
h -t 0.160000000 -s 0 -d -1 -p cbr -e 1000 -c 2 -a 0 -i 182 -k AGT
+ -t 0.164000000 -s 0 -d -1 -p cbr -e 1000 -c 2 -a 0 -i 184 -k AGT 
- -t 0.164000000 -s 0 -d -1 -p cbr -e 1000 -c 2 -a 0 -i 184 -k AGT
h -t 0.164000000 -s 0 -d -1 -p cbr -e 1000 -c 2 -a 0 -i 184 -k AGT
+ -t 0.168000000 -s 0 -d -1 -p cbr -e 1000 -c 2 -a 0 -i 186 -k AGT 
- -t 0.168000000 -s 0 -d -1 -p cbr -e 1000 -c 2 -a 0 -i 186 -k AGT
h -t 0.168000000 -s 0 -d -1 -p cbr -e 1000 -c 2 -a 0 -i 186 -k AGT
+ -t 0.170167713 -s 1 -d -1 -p ARP -e 28 -c 2 -a 0 -i 0 -k MAC 
- -t 0.170167713 -s 1 -d -1 -p ARP -e 28 -c 2 -a 0 -i 0 -k MAC
h -t 0.170167713 -s 1 -d -1 -p ARP -e 28 -c 2 -a 0 -i 0 -k MAC
+ -t 0.172000000 -s 0 -d -1 -p cbr -e 1000 -c 2 -a 0 -i 188 -k AGT 
- -t 0.172000000 -s 0 -d -1 -p cbr -e 1000 -c 2 -a 0 -i 188 -k AGT
h -t 0.172000000 -s 0 -d -1 -p cbr -e 1000 -c 2 -a 0 -i 188 -k AGT
+ -t 0.176000000 -s 0 -d -1 -p cbr -e 1000 -c 2 -a 0 -i 190 -k AGT 
- -t 0.176000000 -s 0 -d -1 -p cbr -e 1000 -c 2 -a 0 -i 190 -k AGT
h -t 0.176000000 -s 0 -d -1 -p cbr -e 1000 -c 2 -a 0 -i 190 -k AGT
+ -t 0.180000000 -s 0 -d -1 -p cbr -e 1000 -c 2 -a 0 -i 192 -k AGT 
- -t 0.180000000 -s 0 -d -1 -p cbr -e 1000 -c 2 -a 0 -i 192 -k AGT
h -t 0.180000000 -s 0 -d -1 -p cbr -e 1000 -c 2 -a 0 -i 192 -k AGT
+ -t 0.184000000 -s 0 -d -1 -p cbr -e 1000 -c 2 -a 0 -i 194 -k AGT 
- -t 0.184000000 -s 0 -d -1 -p cbr -e 1000 -c 2 -a 0 -i 194 -k AGT
h -t 0.184000000 -s 0 -d -1 -p cbr -e 1000 -c 2 -a 0 -i 194 -k AGT
+ -t 0.188000000 -s 0 -d -1 -p cbr -e 1000 -c 2 -a 0 -i 196 -k AGT 
- -t 0.188000000 -s 0 -d -1 -p cbr -e 1000 -c 2 -a 0 -i 196 -k AGT
h -t 0.188000000 -s 0 -d -1 -p cbr -e 1000 -c 2 -a 0 -i 196 -k AGT
+ -t 0.192000000 -s 0 -d -1 -p cbr -e 1000 -c 2 -a 0 -i 198 -k AGT 
- -t 0.192000000 -s 0 -d -1 -p cbr -e 1000 -c 2 -a 0 -i 198 -k AGT
h -t 0.192000000 -s 0 -d -1 -p cbr -e 1000 -c 2 -a 0 -i 198 -k AGT
+ -t 0.196000000 -s 0 -d -1 -p cbr -e 1000 -c 2 -a 0 -i 200 -k AGT 
- -t 0.196000000 -s 0 -d -1 -p cbr -e 1000 -c 2 -a 0 -i 200 -k AGT
h -t 0.196000000 -s 0 -d -1 -p cbr -e 1000 -c 2 -a 0 -i 200 -k AGT
+ -t 0.200000000 -s 0 -d -1 -p cbr -e 1000 -c 2 -a 0 -i 202 -k AGT 
- -t 0.200000000 -s 0 -d -1 -p cbr -e 1000 -c 2 -a 0 -i 202 -k AGT
h -t 0.200000000 -s 0 -d -1 -p cbr -e 1000 -c 2 -a 0 -i 202 -k AGT
+ -t 0.204000000 -s 0 -d -1 -p cbr -e 1000 -c 2 -a 0 -i 204 -k AGT 
- -t 0.204000000 -s 0 -d -1 -p cbr -e 1000 -c 2 -a 0 -i 204 -k AGT
h -t 0.204000000 -s 0 -d -1 -p cbr -e 1000 -c 2 -a 0 -i 204 -k AGT
+ -t 0.208000000 -s 0 -d -1 -p cbr -e 1000 -c 2 -a 0 -i 206 -k AGT 
- -t 0.208000000 -s 0 -d -1 -p cbr -e 1000 -c 2 -a 0 -i 206 -k AGT
h -t 0.208000000 -s 0 -d -1 -p cbr -e 1000 -c 2 -a 0 -i 206 -k AGT
+ -t 0.212000000 -s 0 -d -1 -p cbr -e 1000 -c 2 -a 0 -i 208 -k AGT 
- -t 0.212000000 -s 0 -d -1 -p cbr -e 1000 -c 2 -a 0 -i 208 -k AGT
h -t 0.212000000 -s 0 -d -1 -p cbr -e 1000 -c 2 -a 0 -i 208 -k AGT
r -t 0.213168380 -s 0 -d -1 -p ARP -e 28 -c 2 -a 0 -i 0 -k MAC
+ -t 0.216000000 -s 0 -d -1 -p cbr -e 1000 -c 2 -a 0 -i 264 -k AGT 
- -t 0.216000000 -s 0 -d -1 -p cbr -e 1000 -c 2 -a 0 -i 264 -k AGT
h -t 0.216000000 -s 0 -d -1 -p cbr -e 1000 -c 2 -a 0 -i 264 -k AGT
+ -t 0.220000000 -s 0 -d -1 -p cbr -e 1000 -c 2 -a 0 -i 266 -k AGT 
- -t 0.220000000 -s 0 -d -1 -p cbr -e 1000 -c 2 -a 0 -i 266 -k AGT
h -t 0.220000000 -s 0 -d -1 -p cbr -e 1000 -c 2 -a 0 -i 266 -k AGT
+ -t 0.224000000 -s 0 -d -1 -p cbr -e 1000 -c 2 -a 0 -i 268 -k AGT 
- -t 0.224000000 -s 0 -d -1 -p cbr -e 1000 -c 2 -a 0 -i 268 -k AGT
h -t 0.224000000 -s 0 -d -1 -p cbr -e 1000 -c 2 -a 0 -i 268 -k AGT
+ -t 0.225167713 -s 1 -d -1 -p ARP -e 28 -c 2 -a 0 -i 0 -k MAC 
- -t 0.225167713 -s 1 -d -1 -p ARP -e 28 -c 2 -a 0 -i 0 -k MAC
h -t 0.225167713 -s 1 -d -1 -p ARP -e 28 -c 2 -a 0 -i 0 -k MAC
+ -t 0.228000000 -s 0 -d -1 -p cbr -e 1000 -c 2 -a 0 -i 270 -k AGT 
- -t 0.228000000 -s 0 -d -1 -p cbr -e 1000 -c 2 -a 0 -i 270 -k AGT
h -t 0.228000000 -s 0 -d -1 -p cbr -e 1000 -c 2 -a 0 -i 270 -k AGT
+ -t 0.232000000 -s 0 -d -1 -p cbr -e 1000 -c 2 -a 0 -i 272 -k AGT 
- -t 0.232000000 -s 0 -d -1 -p cbr -e 1000 -c 2 -a 0 -i 272 -k AGT
h -t 0.232000000 -s 0 -d -1 -p cbr -e 1000 -c 2 -a 0 -i 272 -k AGT
+ -t 0.236000000 -s 0 -d -1 -p cbr -e 1000 -c 2 -a 0 -i 274 -k AGT 
- -t 0.236000000 -s 0 -d -1 -p cbr -e 1000 -c 2 -a 0 -i 274 -k AGT
h -t 0.236000000 -s 0 -d -1 -p cbr -e 1000 -c 2 -a 0 -i 274 -k AGT
+ -t 0.240000000 -s 0 -d -1 -p cbr -e 1000 -c 2 -a 0 -i 276 -k AGT 
- -t 0.240000000 -s 0 -d -1 -p cbr -e 1000 -c 2 -a 0 -i 276 -k AGT
h -t 0.240000000 -s 0 -d -1 -p cbr -e 1000 -c 2 -a 0 -i 276 -k AGT
+ -t 0.244000000 -s 0 -d -1 -p cbr -e 1000 -c 2 -a 0 -i 278 -k AGT 
- -t 0.244000000 -s 0 -d -1 -p cbr -e 1000 -c 2 -a 0 -i 278 -k AGT
h -t 0.244000000 -s 0 -d -1 -p cbr -e 1000 -c 2 -a 0 -i 278 -k AGT
+ -t 0.248000000 -s 0 -d -1 -p cbr -e 1000 -c 2 -a 0 -i 280 -k AGT 
- -t 0.248000000 -s 0 -d -1 -p cbr -e 1000 -c 2 -a 0 -i 280 -k AGT
h -t 0.248000000 -s 0 -d -1 -p cbr -e 1000 -c 2 -a 0 -i 280 -k AGT
+ -t 0.252000000 -s 0 -d -1 -p cbr -e 1000 -c 2 -a 0 -i 282 -k AGT 
- -t 0.252000000 -s 0 -d -1 -p cbr -e 1000 -c 2 -a 0 -i 282 -k AGT
h -t 0.252000000 -s 0 -d -1 -p cbr -e 1000 -c 2 -a 0 -i 282 -k AGT
+ -t 0.256000000 -s 0 -d -1 -p cbr -e 1000 -c 2 -a 0 -i 284 -k AGT 
- -t 0.256000000 -s 0 -d -1 -p cbr -e 1000 -c 2 -a 0 -i 284 -k AGT
h -t 0.256000000 -s 0 -d -1 -p cbr -e 1000 -c 2 -a 0 -i 284 -k AGT
d -t 0.256000000 -s 0 -d -1 -p cbr -e 1020 -c 2 -a 0 -i 0 -k RTR
+ -t 0.260000000 -s 0 -d -1 -p cbr -e 1000 -c 2 -a 0 -i 286 -k AGT 
- -t 0.260000000 -s 0 -d -1 -p cbr -e 1000 -c 2 -a 0 -i 286 -k AGT
h -t 0.260000000 -s 0 -d -1 -p cbr -e 1000 -c 2 -a 0 -i 286 -k AGT
d -t 0.260000000 -s 0 -d -1 -p cbr -e 1020 -c 2 -a 0 -i 2 -k RTR
+ -t 0.264000000 -s 0 -d -1 -p cbr -e 1000 -c 2 -a 0 -i 288 -k AGT 
- -t 0.264000000 -s 0 -d -1 -p cbr -e 1000 -c 2 -a 0 -i 288 -k AGT
h -t 0.264000000 -s 0 -d -1 -p cbr -e 1000 -c 2 -a 0 -i 288 -k AGT
d -t 0.264000000 -s 0 -d -1 -p cbr -e 1020 -c 2 -a 0 -i 4 -k RTR
+ -t 0.268000000 -s 0 -d -1 -p cbr -e 1000 -c 2 -a 0 -i 290 -k AGT 
- -t 0.268000000 -s 0 -d -1 -p cbr -e 1000 -c 2 -a 0 -i 290 -k AGT
h -t 0.268000000 -s 0 -d -1 -p cbr -e 1000 -c 2 -a 0 -i 290 -k AGT
d -t 0.268000000 -s 0 -d -1 -p cbr -e 1020 -c 2 -a 0 -i 6 -k RTR
r -t 0.268168380 -s 0 -d -1 -p ARP -e 28 -c 2 -a 0 -i 0 -k MAC
+ -t 0.272000000 -s 0 -d -1 -p cbr -e 1000 -c 2 -a 0 -i 356 -k AGT 
- -t 0.272000000 -s 0 -d -1 -p cbr -e 1000 -c 2 -a 0 -i 356 -k AGT
h -t 0.272000000 -s 0 -d -1 -p cbr -e 1000 -c 2 -a 0 -i 356 -k AGT
d -t 0.272000000 -s 0 -d -1 -p cbr -e 1020 -c 2 -a 0 -i 8 -k RTR
+ -t 0.276000000 -s 0 -d -1 -p cbr -e 1000 -c 2 -a 0 -i 358 -k AGT 
- -t 0.276000000 -s 0 -d -1 -p cbr -e 1000 -c 2 -a 0 -i 358 -k AGT
h -t 0.276000000 -s 0 -d -1 -p cbr -e 1000 -c 2 -a 0 -i 358 -k AGT
d -t 0.276000000 -s 0 -d -1 -p cbr -e 1020 -c 2 -a 0 -i 10 -k RTR
+ -t 0.280000000 -s 0 -d -1 -p cbr -e 1000 -c 2 -a 0 -i 360 -k AGT 
- -t 0.280000000 -s 0 -d -1 -p cbr -e 1000 -c 2 -a 0 -i 360 -k AGT
h -t 0.280000000 -s 0 -d -1 -p cbr -e 1000 -c 2 -a 0 -i 360 -k AGT
d -t 0.280000000 -s 0 -d -1 -p cbr -e 1020 -c 2 -a 0 -i 12 -k RTR
+ -t 0.284000000 -s 0 -d -1 -p cbr -e 1000 -c 2 -a 0 -i 362 -k AGT 
- -t 0.284000000 -s 0 -d -1 -p cbr -e 1000 -c 2 -a 0 -i 362 -k AGT
h -t 0.284000000 -s 0 -d -1 -p cbr -e 1000 -c 2 -a 0 -i 362 -k AGT
d -t 0.284000000 -s 0 -d -1 -p cbr -e 1020 -c 2 -a 0 -i 14 -k RTR
+ -t 0.288000000 -s 0 -d -1 -p cbr -e 1000 -c 2 -a 0 -i 364 -k AGT 
- -t 0.288000000 -s 0 -d -1 -p cbr -e 1000 -c 2 -a 0 -i 364 -k AGT
h -t 0.288000000 -s 0 -d -1 -p cbr -e 1000 -c 2 -a 0 -i 364 -k AGT
d -t 0.288000000 -s 0 -d -1 -p cbr -e 1020 -c 2 -a 0 -i 24 -k RTR
+ -t 0.292000000 -s 0 -d -1 -p cbr -e 1000 -c 2 -a 0 -i 366 -k AGT 
- -t 0.292000000 -s 0 -d -1 -p cbr -e 1000 -c 2 -a 0 -i 366 -k AGT
h -t 0.292000000 -s 0 -d -1 -p cbr -e 1000 -c 2 -a 0 -i 366 -k AGT
d -t 0.292000000 -s 0 -d -1 -p cbr -e 1020 -c 2 -a 0 -i 26 -k RTR
+ -t 0.296000000 -s 0 -d -1 -p cbr -e 1000 -c 2 -a 0 -i 368 -k AGT 
- -t 0.296000000 -s 0 -d -1 -p cbr -e 1000 -c 2 -a 0 -i 368 -k AGT
h -t 0.296000000 -s 0 -d -1 -p cbr -e 1000 -c 2 -a 0 -i 368 -k AGT
d -t 0.296000000 -s 0 -d -1 -p cbr -e 1020 -c 2 -a 0 -i 28 -k RTR
+ -t 0.300000000 -s 0 -d -1 -p cbr -e 1000 -c 2 -a 0 -i 370 -k AGT 
- -t 0.300000000 -s 0 -d -1 -p cbr -e 1000 -c 2 -a 0 -i 370 -k AGT
h -t 0.300000000 -s 0 -d -1 -p cbr -e 1000 -c 2 -a 0 -i 370 -k AGT
d -t 0.300000000 -s 0 -d -1 -p cbr -e 1020 -c 2 -a 0 -i 30 -k RTR
+ -t 0.304000000 -s 0 -d -1 -p cbr -e 1000 -c 2 -a 0 -i 372 -k AGT 
- -t 0.304000000 -s 0 -d -1 -p cbr -e 1000 -c 2 -a 0 -i 372 -k AGT
h -t 0.304000000 -s 0 -d -1 -p cbr -e 1000 -c 2 -a 0 -i 372 -k AGT
d -t 0.304000000 -s 0 -d -1 -p cbr -e 1020 -c 2 -a 0 -i 32 -k RTR
+ -t 0.308000000 -s 0 -d -1 -p cbr -e 1000 -c 2 -a 0 -i 374 -k AGT 
- -t 0.308000000 -s 0 -d -1 -p cbr -e 1000 -c 2 -a 0 -i 374 -k AGT
h -t 0.308000000 -s 0 -d -1 -p cbr -e 1000 -c 2 -a 0 -i 374 -k AGT
d -t 0.308000000 -s 0 -d -1 -p cbr -e 1020 -c 2 -a 0 -i 34 -k RTR
+ -t 0.312000000 -s 0 -d -1 -p cbr -e 1000 -c 2 -a 0 -i 376 -k AGT 
- -t 0.312000000 -s 0 -d -1 -p cbr -e 1000 -c 2 -a 0 -i 376 -k AGT
h -t 0.312000000 -s 0 -d -1 -p cbr -e 1000 -c 2 -a 0 -i 376 -k AGT
d -t 0.312000000 -s 0 -d -1 -p cbr -e 1020 -c 2 -a 0 -i 36 -k RTR
+ -t 0.316000000 -s 0 -d -1 -p cbr -e 1000 -c 2 -a 0 -i 442 -k AGT 
- -t 0.316000000 -s 0 -d -1 -p cbr -e 1000 -c 2 -a 0 -i 442 -k AGT
h -t 0.316000000 -s 0 -d -1 -p cbr -e 1000 -c 2 -a 0 -i 442 -k AGT
d -t 0.316000000 -s 0 -d -1 -p cbr -e 1020 -c 2 -a 0 -i 38 -k RTR
+ -t 0.320000000 -s 0 -d -1 -p cbr -e 1000 -c 2 -a 0 -i 444 -k AGT 
- -t 0.320000000 -s 0 -d -1 -p cbr -e 1000 -c 2 -a 0 -i 444 -k AGT
h -t 0.320000000 -s 0 -d -1 -p cbr -e 1000 -c 2 -a 0 -i 444 -k AGT
d -t 0.320000000 -s 0 -d -1 -p cbr -e 1020 -c 2 -a 0 -i 40 -k RTR
+ -t 0.324000000 -s 0 -d -1 -p cbr -e 1000 -c 2 -a 0 -i 446 -k AGT 
- -t 0.324000000 -s 0 -d -1 -p cbr -e 1000 -c 2 -a 0 -i 446 -k AGT
h -t 0.324000000 -s 0 -d -1 -p cbr -e 1000 -c 2 -a 0 -i 446 -k AGT
d -t 0.324000000 -s 0 -d -1 -p cbr -e 1020 -c 2 -a 0 -i 43 -k RTR
+ -t 0.328000000 -s 0 -d -1 -p cbr -e 1000 -c 2 -a 0 -i 448 -k AGT 
- -t 0.328000000 -s 0 -d -1 -p cbr -e 1000 -c 2 -a 0 -i 448 -k AGT
h -t 0.328000000 -s 0 -d -1 -p cbr -e 1000 -c 2 -a 0 -i 448 -k AGT
d -t 0.328000000 -s 0 -d -1 -p cbr -e 1020 -c 2 -a 0 -i 45 -k RTR
+ -t 0.329168380 -s 0 -d -1 -p smac -e 10 -c 2 -a 0 -i 0 -k MAC 
- -t 0.329168380 -s 0 -d -1 -p smac -e 10 -c 2 -a 0 -i 0 -k MAC
h -t 0.329168380 -s 0 -d -1 -p smac -e 10 -c 2 -a 0 -i 0 -k MAC
+ -t 0.332000000 -s 0 -d -1 -p cbr -e 1000 -c 2 -a 0 -i 450 -k AGT 
- -t 0.332000000 -s 0 -d -1 -p cbr -e 1000 -c 2 -a 0 -i 450 -k AGT
h -t 0.332000000 -s 0 -d -1 -p cbr -e 1000 -c 2 -a 0 -i 450 -k AGT
d -t 0.332000000 -s 0 -d -1 -p cbr -e 1020 -c 2 -a 0 -i 47 -k RTR
+ -t 0.336000000 -s 0 -d -1 -p cbr -e 1000 -c 2 -a 0 -i 452 -k AGT 
- -t 0.336000000 -s 0 -d -1 -p cbr -e 1000 -c 2 -a 0 -i 452 -k AGT
h -t 0.336000000 -s 0 -d -1 -p cbr -e 1000 -c 2 -a 0 -i 452 -k AGT
d -t 0.336000000 -s 0 -d -1 -p cbr -e 1020 -c 2 -a 0 -i 49 -k RTR
+ -t 0.340000000 -s 0 -d -1 -p cbr -e 1000 -c 2 -a 0 -i 454 -k AGT 
- -t 0.340000000 -s 0 -d -1 -p cbr -e 1000 -c 2 -a 0 -i 454 -k AGT
h -t 0.340000000 -s 0 -d -1 -p cbr -e 1000 -c 2 -a 0 -i 454 -k AGT
d -t 0.340000000 -s 0 -d -1 -p cbr -e 1020 -c 2 -a 0 -i 72 -k RTR
+ -t 0.340169047 -s 1 -d -1 -p smac -e 10 -c 2 -a 0 -i 0 -k MAC 
- -t 0.340169047 -s 1 -d -1 -p smac -e 10 -c 2 -a 0 -i 0 -k MAC
h -t 0.340169047 -s 1 -d -1 -p smac -e 10 -c 2 -a 0 -i 0 -k MAC
+ -t 0.344000000 -s 0 -d -1 -p cbr -e 1000 -c 2 -a 0 -i 456 -k AGT 
- -t 0.344000000 -s 0 -d -1 -p cbr -e 1000 -c 2 -a 0 -i 456 -k AGT
h -t 0.344000000 -s 0 -d -1 -p cbr -e 1000 -c 2 -a 0 -i 456 -k AGT
d -t 0.344000000 -s 0 -d -1 -p cbr -e 1020 -c 2 -a 0 -i 74 -k RTR
+ -t 0.348000000 -s 0 -d -1 -p cbr -e 1000 -c 2 -a 0 -i 458 -k AGT 
- -t 0.348000000 -s 0 -d -1 -p cbr -e 1000 -c 2 -a 0 -i 458 -k AGT
h -t 0.348000000 -s 0 -d -1 -p cbr -e 1000 -c 2 -a 0 -i 458 -k AGT
d -t 0.348000000 -s 0 -d -1 -p cbr -e 1020 -c 2 -a 0 -i 76 -k RTR
+ -t 0.351169713 -s 0 -d -1 -p ARP -e 28 -c 2 -a 0 -i 0 -k MAC 
- -t 0.351169713 -s 0 -d -1 -p ARP -e 28 -c 2 -a 0 -i 0 -k MAC
h -t 0.351169713 -s 0 -d -1 -p ARP -e 28 -c 2 -a 0 -i 0 -k MAC
+ -t 0.352000000 -s 0 -d -1 -p cbr -e 1000 -c 2 -a 0 -i 460 -k AGT 
- -t 0.352000000 -s 0 -d -1 -p cbr -e 1000 -c 2 -a 0 -i 460 -k AGT
h -t 0.352000000 -s 0 -d -1 -p cbr -e 1000 -c 2 -a 0 -i 460 -k AGT
d -t 0.352000000 -s 0 -d -1 -p cbr -e 1020 -c 2 -a 0 -i 78 -k RTR
+ -t 0.356000000 -s 0 -d -1 -p cbr -e 1000 -c 2 -a 0 -i 462 -k AGT 
- -t 0.356000000 -s 0 -d -1 -p cbr -e 1000 -c 2 -a 0 -i 462 -k AGT
h -t 0.356000000 -s 0 -d -1 -p cbr -e 1000 -c 2 -a 0 -i 462 -k AGT
d -t 0.356000000 -s 0 -d -1 -p cbr -e 1020 -c 2 -a 0 -i 80 -k RTR
+ -t 0.360000000 -s 0 -d -1 -p cbr -e 1000 -c 2 -a 0 -i 464 -k AGT 
- -t 0.360000000 -s 0 -d -1 -p cbr -e 1000 -c 2 -a 0 -i 464 -k AGT
h -t 0.360000000 -s 0 -d -1 -p cbr -e 1000 -c 2 -a 0 -i 464 -k AGT
d -t 0.360000000 -s 0 -d -1 -p cbr -e 1020 -c 2 -a 0 -i 82 -k RTR
+ -t 0.364000000 -s 0 -d -1 -p cbr -e 1000 -c 2 -a 0 -i 466 -k AGT 
- -t 0.364000000 -s 0 -d -1 -p cbr -e 1000 -c 2 -a 0 -i 466 -k AGT
h -t 0.364000000 -s 0 -d -1 -p cbr -e 1000 -c 2 -a 0 -i 466 -k AGT
d -t 0.364000000 -s 0 -d -1 -p cbr -e 1020 -c 2 -a 0 -i 84 -k RTR
+ -t 0.368000000 -s 0 -d -1 -p cbr -e 1000 -c 2 -a 0 -i 532 -k AGT 
- -t 0.368000000 -s 0 -d -1 -p cbr -e 1000 -c 2 -a 0 -i 532 -k AGT
h -t 0.368000000 -s 0 -d -1 -p cbr -e 1000 -c 2 -a 0 -i 532 -k AGT
d -t 0.368000000 -s 0 -d -1 -p cbr -e 1020 -c 2 -a 0 -i 86 -k RTR
+ -t 0.372000000 -s 0 -d -1 -p cbr -e 1000 -c 2 -a 0 -i 534 -k AGT 
- -t 0.372000000 -s 0 -d -1 -p cbr -e 1000 -c 2 -a 0 -i 534 -k AGT
h -t 0.372000000 -s 0 -d -1 -p cbr -e 1000 -c 2 -a 0 -i 534 -k AGT
d -t 0.372000000 -s 0 -d -1 -p cbr -e 1020 -c 2 -a 0 -i 88 -k RTR
+ -t 0.376000000 -s 0 -d -1 -p cbr -e 1000 -c 2 -a 0 -i 536 -k AGT 
- -t 0.376000000 -s 0 -d -1 -p cbr -e 1000 -c 2 -a 0 -i 536 -k AGT
h -t 0.376000000 -s 0 -d -1 -p cbr -e 1000 -c 2 -a 0 -i 536 -k AGT
d -t 0.376000000 -s 0 -d -1 -p cbr -e 1020 -c 2 -a 0 -i 90 -k RTR
+ -t 0.380000000 -s 0 -d -1 -p cbr -e 1000 -c 2 -a 0 -i 538 -k AGT 
- -t 0.380000000 -s 0 -d -1 -p cbr -e 1000 -c 2 -a 0 -i 538 -k AGT
h -t 0.380000000 -s 0 -d -1 -p cbr -e 1000 -c 2 -a 0 -i 538 -k AGT
d -t 0.380000000 -s 0 -d -1 -p cbr -e 1020 -c 2 -a 0 -i 123 -k RTR
+ -t 0.384000000 -s 0 -d -1 -p cbr -e 1000 -c 2 -a 0 -i 540 -k AGT 
- -t 0.384000000 -s 0 -d -1 -p cbr -e 1000 -c 2 -a 0 -i 540 -k AGT
h -t 0.384000000 -s 0 -d -1 -p cbr -e 1000 -c 2 -a 0 -i 540 -k AGT
d -t 0.384000000 -s 0 -d -1 -p cbr -e 1020 -c 2 -a 0 -i 125 -k RTR
+ -t 0.388000000 -s 0 -d -1 -p cbr -e 1000 -c 2 -a 0 -i 542 -k AGT 
- -t 0.388000000 -s 0 -d -1 -p cbr -e 1000 -c 2 -a 0 -i 542 -k AGT
h -t 0.388000000 -s 0 -d -1 -p cbr -e 1000 -c 2 -a 0 -i 542 -k AGT
d -t 0.388000000 -s 0 -d -1 -p cbr -e 1020 -c 2 -a 0 -i 127 -k RTR
+ -t 0.392000000 -s 0 -d -1 -p cbr -e 1000 -c 2 -a 0 -i 544 -k AGT 
- -t 0.392000000 -s 0 -d -1 -p cbr -e 1000 -c 2 -a 0 -i 544 -k AGT
h -t 0.392000000 -s 0 -d -1 -p cbr -e 1000 -c 2 -a 0 -i 544 -k AGT
d -t 0.392000000 -s 0 -d -1 -p cbr -e 1020 -c 2 -a 0 -i 129 -k RTR
+ -t 0.394170380 -s 1 -d -1 -p smac -e 10 -c 2 -a 0 -i 0 -k MAC 
- -t 0.394170380 -s 1 -d -1 -p smac -e 10 -c 2 -a 0 -i 0 -k MAC
h -t 0.394170380 -s 1 -d -1 -p smac -e 10 -c 2 -a 0 -i 0 -k MAC
r -t 0.394170380 -s 1 -d -1 -p ARP -e 28 -c 2 -a 0 -i 0 -k MAC
+ -t 0.396000000 -s 0 -d -1 -p cbr -e 1000 -c 2 -a 0 -i 546 -k AGT 
- -t 0.396000000 -s 0 -d -1 -p cbr -e 1000 -c 2 -a 0 -i 546 -k AGT
h -t 0.396000000 -s 0 -d -1 -p cbr -e 1000 -c 2 -a 0 -i 546 -k AGT
d -t 0.396000000 -s 0 -d -1 -p cbr -e 1020 -c 2 -a 0 -i 131 -k RTR
+ -t 0.400000000 -s 0 -d -1 -p cbr -e 1000 -c 2 -a 0 -i 548 -k AGT 
- -t 0.400000000 -s 0 -d -1 -p cbr -e 1000 -c 2 -a 0 -i 548 -k AGT
h -t 0.400000000 -s 0 -d -1 -p cbr -e 1000 -c 2 -a 0 -i 548 -k AGT
d -t 0.400000000 -s 0 -d -1 -p cbr -e 1020 -c 2 -a 0 -i 133 -k RTR
+ -t 0.404000000 -s 0 -d -1 -p cbr -e 1000 -c 2 -a 0 -i 550 -k AGT 
- -t 0.404000000 -s 0 -d -1 -p cbr -e 1000 -c 2 -a 0 -i 550 -k AGT
h -t 0.404000000 -s 0 -d -1 -p cbr -e 1000 -c 2 -a 0 -i 550 -k AGT
d -t 0.404000000 -s 0 -d -1 -p cbr -e 1020 -c 2 -a 0 -i 135 -k RTR
+ -t 0.408000000 -s 0 -d -1 -p cbr -e 1000 -c 2 -a 0 -i 552 -k AGT 
- -t 0.408000000 -s 0 -d -1 -p cbr -e 1000 -c 2 -a 0 -i 552 -k AGT
h -t 0.408000000 -s 0 -d -1 -p cbr -e 1000 -c 2 -a 0 -i 552 -k AGT
d -t 0.408000000 -s 0 -d -1 -p cbr -e 1020 -c 2 -a 0 -i 138 -k RTR
+ -t 0.412000000 -s 0 -d -1 -p cbr -e 1000 -c 2 -a 0 -i 554 -k AGT 
- -t 0.412000000 -s 0 -d -1 -p cbr -e 1000 -c 2 -a 0 -i 554 -k AGT
h -t 0.412000000 -s 0 -d -1 -p cbr -e 1000 -c 2 -a 0 -i 554 -k AGT
d -t 0.412000000 -s 0 -d -1 -p cbr -e 1020 -c 2 -a 0 -i 140 -k RTR
+ -t 0.416000000 -s 0 -d -1 -p cbr -e 1000 -c 2 -a 0 -i 556 -k AGT 
- -t 0.416000000 -s 0 -d -1 -p cbr -e 1000 -c 2 -a 0 -i 556 -k AGT
h -t 0.416000000 -s 0 -d -1 -p cbr -e 1000 -c 2 -a 0 -i 556 -k AGT
d -t 0.416000000 -s 0 -d -1 -p cbr -e 1020 -c 2 -a 0 -i 182 -k RTR
+ -t 0.420000000 -s 0 -d -1 -p cbr -e 1000 -c 2 -a 0 -i 622 -k AGT 
- -t 0.420000000 -s 0 -d -1 -p cbr -e 1000 -c 2 -a 0 -i 622 -k AGT
h -t 0.420000000 -s 0 -d -1 -p cbr -e 1000 -c 2 -a 0 -i 622 -k AGT
d -t 0.420000000 -s 0 -d -1 -p cbr -e 1020 -c 2 -a 0 -i 184 -k RTR
+ -t 0.422171047 -s 0 -d -1 -p smac -e 10 -c 2 -a 0 -i 0 -k MAC 
- -t 0.422171047 -s 0 -d -1 -p smac -e 10 -c 2 -a 0 -i 0 -k MAC
h -t 0.422171047 -s 0 -d -1 -p smac -e 10 -c 2 -a 0 -i 0 -k MAC
+ -t 0.424000000 -s 0 -d -1 -p cbr -e 1000 -c 2 -a 0 -i 624 -k AGT 
- -t 0.424000000 -s 0 -d -1 -p cbr -e 1000 -c 2 -a 0 -i 624 -k AGT
h -t 0.424000000 -s 0 -d -1 -p cbr -e 1000 -c 2 -a 0 -i 624 -k AGT
d -t 0.424000000 -s 0 -d -1 -p cbr -e 1020 -c 2 -a 0 -i 186 -k RTR
+ -t 0.428000000 -s 0 -d -1 -p cbr -e 1000 -c 2 -a 0 -i 626 -k AGT 
- -t 0.428000000 -s 0 -d -1 -p cbr -e 1000 -c 2 -a 0 -i 626 -k AGT
h -t 0.428000000 -s 0 -d -1 -p cbr -e 1000 -c 2 -a 0 -i 626 -k AGT
d -t 0.428000000 -s 0 -d -1 -p cbr -e 1020 -c 2 -a 0 -i 188 -k RTR
+ -t 0.432000000 -s 0 -d -1 -p cbr -e 1000 -c 2 -a 0 -i 628 -k AGT 
- -t 0.432000000 -s 0 -d -1 -p cbr -e 1000 -c 2 -a 0 -i 628 -k AGT
h -t 0.432000000 -s 0 -d -1 -p cbr -e 1000 -c 2 -a 0 -i 628 -k AGT
d -t 0.432000000 -s 0 -d -1 -p cbr -e 1020 -c 2 -a 0 -i 190 -k RTR
+ -t 0.433171713 -s 1 -d -1 -p smac -e 10 -c 2 -a 0 -i 0 -k MAC 
- -t 0.433171713 -s 1 -d -1 -p smac -e 10 -c 2 -a 0 -i 0 -k MAC
h -t 0.433171713 -s 1 -d -1 -p smac -e 10 -c 2 -a 0 -i 0 -k MAC
+ -t 0.436000000 -s 0 -d -1 -p cbr -e 1000 -c 2 -a 0 -i 630 -k AGT 
- -t 0.436000000 -s 0 -d -1 -p cbr -e 1000 -c 2 -a 0 -i 630 -k AGT
h -t 0.436000000 -s 0 -d -1 -p cbr -e 1000 -c 2 -a 0 -i 630 -k AGT
d -t 0.436000000 -s 0 -d -1 -p cbr -e 1020 -c 2 -a 0 -i 192 -k RTR
+ -t 0.440000000 -s 0 -d -1 -p cbr -e 1000 -c 2 -a 0 -i 632 -k AGT 
- -t 0.440000000 -s 0 -d -1 -p cbr -e 1000 -c 2 -a 0 -i 632 -k AGT
h -t 0.440000000 -s 0 -d -1 -p cbr -e 1000 -c 2 -a 0 -i 632 -k AGT
d -t 0.440000000 -s 0 -d -1 -p cbr -e 1020 -c 2 -a 0 -i 194 -k RTR
+ -t 0.444000000 -s 0 -d -1 -p cbr -e 1000 -c 2 -a 0 -i 634 -k AGT 
- -t 0.444000000 -s 0 -d -1 -p cbr -e 1000 -c 2 -a 0 -i 634 -k AGT
h -t 0.444000000 -s 0 -d -1 -p cbr -e 1000 -c 2 -a 0 -i 634 -k AGT
d -t 0.444000000 -s 0 -d -1 -p cbr -e 1020 -c 2 -a 0 -i 196 -k RTR
+ -t 0.444172380 -s 0 -d -1 -p ARP -e 28 -c 2 -a 0 -i 0 -k MAC 
- -t 0.444172380 -s 0 -d -1 -p ARP -e 28 -c 2 -a 0 -i 0 -k MAC
h -t 0.444172380 -s 0 -d -1 -p ARP -e 28 -c 2 -a 0 -i 0 -k MAC
+ -t 0.448000000 -s 0 -d -1 -p cbr -e 1000 -c 2 -a 0 -i 636 -k AGT 
- -t 0.448000000 -s 0 -d -1 -p cbr -e 1000 -c 2 -a 0 -i 636 -k AGT
h -t 0.448000000 -s 0 -d -1 -p cbr -e 1000 -c 2 -a 0 -i 636 -k AGT
d -t 0.448000000 -s 0 -d -1 -p cbr -e 1020 -c 2 -a 0 -i 198 -k RTR
+ -t 0.452000000 -s 0 -d -1 -p cbr -e 1000 -c 2 -a 0 -i 638 -k AGT 
- -t 0.452000000 -s 0 -d -1 -p cbr -e 1000 -c 2 -a 0 -i 638 -k AGT
h -t 0.452000000 -s 0 -d -1 -p cbr -e 1000 -c 2 -a 0 -i 638 -k AGT
d -t 0.452000000 -s 0 -d -1 -p cbr -e 1020 -c 2 -a 0 -i 200 -k RTR
+ -t 0.456000000 -s 0 -d -1 -p cbr -e 1000 -c 2 -a 0 -i 640 -k AGT 
- -t 0.456000000 -s 0 -d -1 -p cbr -e 1000 -c 2 -a 0 -i 640 -k AGT
h -t 0.456000000 -s 0 -d -1 -p cbr -e 1000 -c 2 -a 0 -i 640 -k AGT
d -t 0.456000000 -s 0 -d -1 -p cbr -e 1020 -c 2 -a 0 -i 202 -k RTR