Sconfig 0.00000 tap: on snoop: rts? on errs? on
Sconfig 0.00000 salvage: on !bd replies? on
Sconfig 0.00000 grat error: on grat reply: on
Sconfig 0.00000 $reply for props: on ring 0 search: on
Sconfig 0.00000 using MOBICACHE
s -t 0.000000000 -Hs 0 -Hd -2 -Ni 0 -Nx 601.00 -Ny 400.00 -Nz 0.00 -Ne 1000.000000 -Nl AGT -Nw ---  [0.00 0 0] -Is 0.0 -Id 1.0 -It cbr -Il 1000 -If 0 -Ii 0 -Iv 32 -Pn cbr -Pi 0 -Pf 0 -Po 0 
r -t 0.000000000 -Hs 0 -Hd -2 -Ni 0 -Nx 601.00 -Ny 400.00 -Nz 0.00 -Ne 1000.000000 -Nl RTR -Nw ---  [0.00 0 0] -Is 0.0 -Id 1.0 -It cbr -Il 1000 -If 0 -Ii 0 -Iv 32 -Pn cbr -Pi 0 -Pf 0 -Po 0 
s -t 0.000142047 -Hs 0 -Hd -1 -Ni 0 -Nx 601.00 -Ny 400.00 -Nz 0.00 -Ne 1000.000000 -Nl RTR -Nw ---  [0.00 0 0] -Is 0.255 -Id 1.255 -It DSR -Il 32 -If 0 -Ii 1 -Iv 32 -P dsr -Ph 1 -Pq 1 -Ps 1 -Pp 0 -Pn 1 -Pl 0 -Pe 0->0 -Pw 0 -Pm 0 -Pc 0 -Pb 0->0 
s -t 0.004000000 -Hs 0 -Hd -2 -Ni 0 -Nx 601.00 -Ny 400.00 -Nz 0.00 -Ne 1000.000000 -Nl AGT -Nw ---  [0.00 0 0] -Is 0.0 -Id 1.0 -It cbr -Il 1000 -If 0 -Ii 2 -Iv 32 -Pn cbr -Pi 1 -Pf 0 -Po 0 
r -t 0.004000000 -Hs 0 -Hd -2 -Ni 0 -Nx 601.00 -Ny 400.00 -Nz 0.00 -Ne 1000.000000 -Nl RTR -Nw ---  [0.00 0 0] -Is 0.0 -Id 1.0 -It cbr -Il 1000 -If 0 -Ii 2 -Iv 32 -Pn cbr -Pi 1 -Pf 0 -Po 0 
s -t 0.008000000 -Hs 0 -Hd -2 -Ni 0 -Nx 601.00 -Ny 400.00 -Nz 0.00 -Ne 1000.000000 -Nl AGT -Nw ---  [0.00 0 0] -Is 0.0 -Id 1.0 -It cbr -Il 1000 -If 0 -Ii 4 -Iv 32 -Pn cbr -Pi 2 -Pf 0 -Po 0 
r -t 0.008000000 -Hs 0 -Hd -2 -Ni 0 -Nx 601.00 -Ny 400.00 -Nz 0.00 -Ne 1000.000000 -Nl RTR -Nw ---  [0.00 0 0] -Is 0.0 -Id 1.0 -It cbr -Il 1000 -If 0 -Ii 4 -Iv 32 -Pn cbr -Pi 2 -Pf 0 -Po 0 
s -t 0.012000000 -Hs 0 -Hd -2 -Ni 0 -Nx 601.00 -Ny 400.00 -Nz 0.00 -Ne 1000.000000 -Nl AGT -Nw ---  [0.00 0 0] -Is 0.0 -Id 1.0 -It cbr -Il 1000 -If 0 -Ii 6 -Iv 32 -Pn cbr -Pi 3 -Pf 0 -Po 0 
r -t 0.012000000 -Hs 0 -Hd -2 -Ni 0 -Nx 601.00 -Ny 400.00 -Nz 0.00 -Ne 1000.000000 -Nl RTR -Nw ---  [0.00 0 0] -Is 0.0 -Id 1.0 -It cbr -Il 1000 -If 0 -Ii 6 -Iv 32 -Pn cbr -Pi 3 -Pf 0 -Po 0 
s -t 0.016000000 -Hs 0 -Hd -2 -Ni 0 -Nx 601.00 -Ny 400.00 -Nz 0.00 -Ne 1000.000000 -Nl AGT -Nw ---  [0.00 0 0] -Is 0.0 -Id 1.0 -It cbr -Il 1000 -If 0 -Ii 8 -Iv 32 -Pn cbr -Pi 4 -Pf 0 -Po 0 
r -t 0.016000000 -Hs 0 -Hd -2 -Ni 0 -Nx 601.00 -Ny 400.00 -Nz 0.00 -Ne 1000.000000 -Nl RTR -Nw ---  [0.00 0 0] -Is 0.0 -Id 1.0 -It cbr -Il 1000 -If 0 -Ii 8 -Iv 32 -Pn cbr -Pi 4 -Pf 0 -Po 0 
s -t 0.020000000 -Hs 0 -Hd -2 -Ni 0 -Nx 601.00 -Ny 400.00 -Nz 0.00 -Ne 1000.000000 -Nl AGT -Nw ---  [0.00 0 0] -Is 0.0 -Id 1.0 -It cbr -Il 1000 -If 0 -Ii 10 -Iv 32 -Pn cbr -Pi 5 -Pf 0 -Po 0 
r -t 0.020000000 -Hs 0 -Hd -2 -Ni 0 -Nx 601.00 -Ny 400.00 -Nz 0.00 -Ne 1000.000000 -Nl RTR -Nw ---  [0.00 0 0] -Is 0.0 -Id 1.0 -It cbr -Il 1000 -If 0 -Ii 10 -Iv 32 -Pn cbr -Pi 5 -Pf 0 -Po 0 
s -t 0.022167047 -Hs 0 -Hd -1 -Ni 0 -Nx 601.00 -Ny 400.00 -Nz 0.00 -Ne 1000.000000 -Nl MAC -Nw ---  [0.00 -1 0] -Is 0.255 -Id 1.255 -It DSR -Il 32 -If 0 -Ii 1 -Iv 32 -P dsr -Ph 1 -Pq 1 -Ps 1 -Pp 0 -Pn 1 -Pl 0 -Pe 0->0 -Pw 0 -Pm 0 -Pc 0 -Pb 0->0 
N -t 0.022168 -n 1 -e 999.978500
s -t 0.024000000 -Hs 0 -Hd -2 -Ni 0 -Nx 601.00 -Ny 400.00 -Nz 0.00 -Ne 999.957000 -Nl AGT -Nw ---  [0.00 0 0] -Is 0.0 -Id 1.0 -It cbr -Il 1000 -If 0 -Ii 12 -Iv 32 -Pn cbr -Pi 6 -Pf 0 -Po 0 
r -t 0.024000000 -Hs 0 -Hd -2 -Ni 0 -Nx 601.00 -Ny 400.00 -Nz 0.00 -Ne 999.957000 -Nl RTR -Nw ---  [0.00 0 0] -Is 0.0 -Id 1.0 -It cbr -Il 1000 -If 0 -Ii 12 -Iv 32 -Pn cbr -Pi 6 -Pf 0 -Po 0 
s -t 0.028000000 -Hs 0 -Hd -2 -Ni 0 -Nx 601.00 -Ny 400.00 -Nz 0.00 -Ne 999.957000 -Nl AGT -Nw ---  [0.00 0 0] -Is 0.0 -Id 1.0 -It cbr -Il 1000 -If 0 -Ii 14 -Iv 32 -Pn cbr -Pi 7 -Pf 0 -Po 0 
r -t 0.028000000 -Hs 0 -Hd -2 -Ni 0 -Nx 601.00 -Ny 400.00 -Nz 0.00 -Ne 999.957000 -Nl RTR -Nw ---  [0.00 0 0] -Is 0.0 -Id 1.0 -It cbr -Il 1000 -If 0 -Ii 14 -Iv 32 -Pn cbr -Pi 7 -Pf 0 -Po 0 
s -t 0.032000000 -Hs 0 -Hd -2 -Ni 0 -Nx 601.00 -Ny 400.00 -Nz 0.00 -Ne 999.957000 -Nl AGT -Nw ---  [0.00 0 0] -Is 0.0 -Id 1.0 -It cbr -Il 1000 -If 0 -Ii 24 -Iv 32 -Pn cbr -Pi 8 -Pf 0 -Po 0 
r -t 0.032000000 -Hs 0 -Hd -2 -Ni 0 -Nx 601.00 -Ny 400.00 -Nz 0.00 -Ne 999.957000 -Nl RTR -Nw ---  [0.00 0 0] -Is 0.0 -Id 1.0 -It cbr -Il 1000 -If 0 -Ii 24 -Iv 32 -Pn cbr -Pi 8 -Pf 0 -Po 0 
s -t 0.034421921 -Hs 0 -Hd -1 -Ni 0 -Nx 601.00 -Ny 400.00 -Nz 0.00 -Ne 999.957000 -Nl RTR -Nw ---  [0.00 0 0] -Is 0.255 -Id 1.255 -It DSR -Il 32 -If 0 -Ii 16 -Iv 32 -P dsr -Ph 1 -Pq 1 -Ps 2 -Pp 0 -Pn 2 -Pl 0 -Pe 0->0 -Pw 0 -Pm 0 -Pc 0 -Pb 0->0 
s -t 0.036000000 -Hs 0 -Hd -2 -Ni 0 -Nx 601.00 -Ny 400.00 -Nz 0.00 -Ne 999.957000 -Nl AGT -Nw ---  [0.00 0 0] -Is 0.0 -Id 1.0 -It cbr -Il 1000 -If 0 -Ii 26 -Iv 32 -Pn cbr -Pi 9 -Pf 0 -Po 0 
r -t 0.036000000 -Hs 0 -Hd -2 -Ni 0 -Nx 601.00 -Ny 400.00 -Nz 0.00 -Ne 999.957000 -Nl RTR -Nw ---  [0.00 0 0] -Is 0.0 -Id 1.0 -It cbr -Il 1000 -If 0 -Ii 26 -Iv 32 -Pn cbr -Pi 9 -Pf 0 -Po 0 
s -t 0.040000000 -Hs 0 -Hd -2 -Ni 0 -Nx 601.00 -Ny 400.00 -Nz 0.00 -Ne 999.957000 -Nl AGT -Nw ---  [0.00 0 0] -Is 0.0 -Id 1.0 -It cbr -Il 1000 -If 0 -Ii 28 -Iv 32 -Pn cbr -Pi 10 -Pf 0 -Po 0 
r -t 0.040000000 -Hs 0 -Hd -2 -Ni 0 -Nx 601.00 -Ny 400.00 -Nz 0.00 -Ne 999.957000 -Nl RTR -Nw ---  [0.00 0 0] -Is 0.0 -Id 1.0 -It cbr -Il 1000 -If 0 -Ii 28 -Iv 32 -Pn cbr -Pi 10 -Pf 0 -Po 0 
s -t 0.044000000 -Hs 0 -Hd -2 -Ni 0 -Nx 601.00 -Ny 400.00 -Nz 0.00 -Ne 999.957000 -Nl AGT -Nw ---  [0.00 0 0] -Is 0.0 -Id 1.0 -It cbr -Il 1000 -If 0 -Ii 30 -Iv 32 -Pn cbr -Pi 11 -Pf 0 -Po 0 
r -t 0.044000000 -Hs 0 -Hd -2 -Ni 0 -Nx 601.00 -Ny 400.00 -Nz 0.00 -Ne 999.957000 -Nl RTR -Nw ---  [0.00 0 0] -Is 0.0 -Id 1.0 -It cbr -Il 1000 -If 0 -Ii 30 -Iv 32 -Pn cbr -Pi 11 -Pf 0 -Po 0 
s -t 0.048000000 -Hs 0 -Hd -2 -Ni 0 -Nx 601.00 -Ny 400.00 -Nz 0.00 -Ne 999.957000 -Nl AGT -Nw ---  [0.00 0 0] -Is 0.0 -Id 1.0 -It cbr -Il 1000 -If 0 -Ii 32 -Iv 32 -Pn cbr -Pi 12 -Pf 0 -Po 0 
r -t 0.048000000 -Hs 0 -Hd -2 -Ni 0 -Nx 601.00 -Ny 400.00 -Nz 0.00 -Ne 999.957000 -Nl RTR -Nw ---  [0.00 0 0] -Is 0.0 -Id 1.0 -It cbr -Il 1000 -If 0 -Ii 32 -Iv 32 -Pn cbr -Pi 12 -Pf 0 -Po 0 
s -t 0.052000000 -Hs 0 -Hd -2 -Ni 0 -Nx 601.00 -Ny 400.00 -Nz 0.00 -Ne 999.957000 -Nl AGT -Nw ---  [0.00 0 0] -Is 0.0 -Id 1.0 -It cbr -Il 1000 -If 0 -Ii 34 -Iv 32 -Pn cbr -Pi 13 -Pf 0 -Po 0 
r -t 0.052000000 -Hs 0 -Hd -2 -Ni 0 -Nx 601.00 -Ny 400.00 -Nz 0.00 -Ne 999.957000 -Nl RTR -Nw ---  [0.00 0 0] -Is 0.0 -Id 1.0 -It cbr -Il 1000 -If 0 -Ii 34 -Iv 32 -Pn cbr -Pi 13 -Pf 0 -Po 0 
s -t 0.056000000 -Hs 0 -Hd -2 -Ni 0 -Nx 601.00 -Ny 400.00 -Nz 0.00 -Ne 999.957000 -Nl AGT -Nw ---  [0.00 0 0] -Is 0.0 -Id 1.0 -It cbr -Il 1000 -If 0 -Ii 36 -Iv 32 -Pn cbr -Pi 14 -Pf 0 -Po 0 
r -t 0.056000000 -Hs 0 -Hd -2 -Ni 0 -Nx 601.00 -Ny 400.00 -Nz 0.00 -Ne 999.957000 -Nl RTR -Nw ---  [0.00 0 0] -Is 0.0 -Id 1.0 -It cbr -Il 1000 -If 0 -Ii 36 -Iv 32 -Pn cbr -Pi 14 -Pf 0 -Po 0 
s -t 0.060000000 -Hs 0 -Hd -2 -Ni 0 -Nx 601.00 -Ny 400.00 -Nz 0.00 -Ne 999.957000 -Nl AGT -Nw ---  [0.00 0 0] -Is 0.0 -Id 1.0 -It cbr -Il 1000 -If 0 -Ii 38 -Iv 32 -Pn cbr -Pi 15 -Pf 0 -Po 0 
r -t 0.060000000 -Hs 0 -Hd -2 -Ni 0 -Nx 601.00 -Ny 400.00 -Nz 0.00 -Ne 999.957000 -Nl RTR -Nw ---  [0.00 0 0] -Is 0.0 -Id 1.0 -It cbr -Il 1000 -If 0 -Ii 38 -Iv 32 -Pn cbr -Pi 15 -Pf 0 -Po 0 
s -t 0.064000000 -Hs 0 -Hd -2 -Ni 0 -Nx 601.00 -Ny 400.00 -Nz 0.00 -Ne 999.957000 -Nl AGT -Nw ---  [0.00 0 0] -Is 0.0 -Id 1.0 -It cbr -Il 1000 -If 0 -Ii 40 -Iv 32 -Pn cbr -Pi 16 -Pf 0 -Po 0 
r -t 0.064000000 -Hs 0 -Hd -2 -Ni 0 -Nx 601.00 -Ny 400.00 -Nz 0.00 -Ne 999.957000 -Nl RTR -Nw ---  [0.00 0 0] -Is 0.0 -Id 1.0 -It cbr -Il 1000 -If 0 -Ii 40 -Iv 32 -Pn cbr -Pi 16 -Pf 0 -Po 0 
r -t 0.065167713 -Hs 1 -Hd -1 -Ni 1 -Nx 801.00 -Ny 400.00 -Nz 0.00 -Ne 999.978500 -Nl MAC -Nw ---  [0.00 -1 0] -Is 0.255 -Id 1.255 -It DSR -Il 32 -If 0 -Ii 1 -Iv 32 -P dsr -Ph 1 -Pq 1 -Ps 1 -Pp 0 -Pn 1 -Pl 0 -Pe 0->0 -Pw 0 -Pm 0 -Pc 0 -Pb 0->0 
r -t 0.065192713 -Hs 1 -Hd -1 -Ni 1 -Nx 801.00 -Ny 400.00 -Nz 0.00 -Ne 999.978500 -Nl RTR -Nw ---  [0.00 -1 0] -Is 0.255 -Id 1.255 -It DSR -Il 32 -If 0 -Ii 1 -Iv 32 -P dsr -Ph 1 -Pq 1 -Ps 1 -Pp 0 -Pn 1 -Pl 0 -Pe 0->0 -Pw 0 -Pm 0 -Pc 0 -Pb 0->0 
s -t 0.067538731 -Hs 1 -Hd 0 -Ni 1 -Nx 801.00 -Ny 400.00 -Nz 0.00 -Ne 999.978500 -Nl RTR -Nw ---  [0.00 0 0] -Is 1.255 -Id 0.255 -It DSR -Il 44 -If 0 -Ii 42 -Iv 254 -P dsr -Ph 2 -Pq 0 -Ps 1 -Pp 1 -Pn 1 -Pl 2 -Pe 0->1 -Pw 0 -Pm 0 -Pc 0 -Pb 0->0 
s -t 0.068000000 -Hs 0 -Hd -2 -Ni 0 -Nx 601.00 -Ny 400.00 -Nz 0.00 -Ne 999.957000 -Nl AGT -Nw ---  [0.00 0 0] -Is 0.0 -Id 1.0 -It cbr -Il 1000 -If 0 -Ii 43 -Iv 32 -Pn cbr -Pi 17 -Pf 0 -Po 0 
r -t 0.068000000 -Hs 0 -Hd -2 -Ni 0 -Nx 601.00 -Ny 400.00 -Nz 0.00 -Ne 999.957000 -Nl RTR -Nw ---  [0.00 0 0] -Is 0.0 -Id 1.0 -It cbr -Il 1000 -If 0 -Ii 43 -Iv 32 -Pn cbr -Pi 17 -Pf 0 -Po 0 
s -t 0.072000000 -Hs 0 -Hd -2 -Ni 0 -Nx 601.00 -Ny 400.00 -Nz 0.00 -Ne 999.957000 -Nl AGT -Nw ---  [0.00 0 0] -Is 0.0 -Id 1.0 -It cbr -Il 1000 -If 0 -Ii 45 -Iv 32 -Pn cbr -Pi 18 -Pf 0 -Po 0 
r -t 0.072000000 -Hs 0 -Hd -2 -Ni 0 -Nx 601.00 -Ny 400.00 -Nz 0.00 -Ne 999.957000 -Nl RTR -Nw ---  [0.00 0 0] -Is 0.0 -Id 1.0 -It cbr -Il 1000 -If 0 -Ii 45 -Iv 32 -Pn cbr -Pi 18 -Pf 0 -Po 0 
s -t 0.076000000 -Hs 0 -Hd -2 -Ni 0 -Nx 601.00 -Ny 400.00 -Nz 0.00 -Ne 999.957000 -Nl AGT -Nw ---  [0.00 0 0] -Is 0.0 -Id 1.0 -It cbr -Il 1000 -If 0 -Ii 47 -Iv 32 -Pn cbr -Pi 19 -Pf 0 -Po 0 
r -t 0.076000000 -Hs 0 -Hd -2 -Ni 0 -Nx 601.00 -Ny 400.00 -Nz 0.00 -Ne 999.957000 -Nl RTR -Nw ---  [0.00 0 0] -Is 0.0 -Id 1.0 -It cbr -Il 1000 -If 0 -Ii 47 -Iv 32 -Pn cbr -Pi 19 -Pf 0 -Po 0 
s -t 0.080000000 -Hs 0 -Hd -2 -Ni 0 -Nx 601.00 -Ny 400.00 -Nz 0.00 -Ne 999.957000 -Nl AGT -Nw ---  [0.00 0 0] -Is 0.0 -Id 1.0 -It cbr -Il 1000 -If 0 -Ii 49 -Iv 32 -Pn cbr -Pi 20 -Pf 0 -Po 0 
r -t 0.080000000 -Hs 0 -Hd -2 -Ni 0 -Nx 601.00 -Ny 400.00 -Nz 0.00 -Ne 999.957000 -Nl RTR -Nw ---  [0.00 0 0] -Is 0.0 -Id 1.0 -It cbr -Il 1000 -If 0 -Ii 49 -Iv 32 -Pn cbr -Pi 20 -Pf 0 -Po 0 
s -t 0.084000000 -Hs 0 -Hd -2 -Ni 0 -Nx 601.00 -Ny 400.00 -Nz 0.00 -Ne 999.957000 -Nl AGT -Nw ---  [0.00 0 0] -Is 0.0 -Id 1.0 -It cbr -Il 1000 -If 0 -Ii 72 -Iv 32 -Pn cbr -Pi 21 -Pf 0 -Po 0 
r -t 0.084000000 -Hs 0 -Hd -2 -Ni 0 -Nx 601.00 -Ny 400.00 -Nz 0.00 -Ne 999.957000 -Nl RTR -Nw ---  [0.00 0 0] -Is 0.0 -Id 1.0 -It cbr -Il 1000 -If 0 -Ii 72 -Iv 32 -Pn cbr -Pi 21 -Pf 0 -Po 0 
s -t 0.088000000 -Hs 0 -Hd -2 -Ni 0 -Nx 601.00 -Ny 400.00 -Nz 0.00 -Ne 999.957000 -Nl AGT -Nw ---  [0.00 0 0] -Is 0.0 -Id 1.0 -It cbr -Il 1000 -If 0 -Ii 74 -Iv 32 -Pn cbr -Pi 22 -Pf 0 -Po 0 
r -t 0.088000000 -Hs 0 -Hd -2 -Ni 0 -Nx 601.00 -Ny 400.00 -Nz 0.00 -Ne 999.957000 -Nl RTR -Nw ---  [0.00 0 0] -Is 0.0 -Id 1.0 -It cbr -Il 1000 -If 0 -Ii 74 -Iv 32 -Pn cbr -Pi 22 -Pf 0 -Po 0 
s -t 0.092000000 -Hs 0 -Hd -2 -Ni 0 -Nx 601.00 -Ny 400.00 -Nz 0.00 -Ne 999.957000 -Nl AGT -Nw ---  [0.00 0 0] -Is 0.0 -Id 1.0 -It cbr -Il 1000 -If 0 -Ii 76 -Iv 32 -Pn cbr -Pi 23 -Pf 0 -Po 0 
r -t 0.092000000 -Hs 0 -Hd -2 -Ni 0 -Nx 601.00 -Ny 400.00 -Nz 0.00 -Ne 999.957000 -Nl RTR -Nw ---  [0.00 0 0] -Is 0.0 -Id 1.0 -It cbr -Il 1000 -If 0 -Ii 76 -Iv 32 -Pn cbr -Pi 23 -Pf 0 -Po 0 
s -t 0.096000000 -Hs 0 -Hd -2 -Ni 0 -Nx 601.00 -Ny 400.00 -Nz 0.00 -Ne 999.957000 -Nl AGT -Nw ---  [0.00 0 0] -Is 0.0 -Id 1.0 -It cbr -Il 1000 -If 0 -Ii 78 -Iv 32 -Pn cbr -Pi 24 -Pf 0 -Po 0 
r -t 0.096000000 -Hs 0 -Hd -2 -Ni 0 -Nx 601.00 -Ny 400.00 -Nz 0.00 -Ne 999.957000 -Nl RTR -Nw ---  [0.00 0 0] -Is 0.0 -Id 1.0 -It cbr -Il 1000 -If 0 -Ii 78 -Iv 32 -Pn cbr -Pi 24 -Pf 0 -Po 0 
s -t 0.100000000 -Hs 0 -Hd -2 -Ni 0 -Nx 601.00 -Ny 400.00 -Nz 0.00 -Ne 999.957000 -Nl AGT -Nw ---  [0.00 0 0] -Is 0.0 -Id 1.0 -It cbr -Il 1000 -If 0 -Ii 80 -Iv 32 -Pn cbr -Pi 25 -Pf 0 -Po 0 
r -t 0.100000000 -Hs 0 -Hd -2 -Ni 0 -Nx 601.00 -Ny 400.00 -Nz 0.00 -Ne 999.957000 -Nl RTR -Nw ---  [0.00 0 0] -Is 0.0 -Id 1.0 -It cbr -Il 1000 -If 0 -Ii 80 -Iv 32 -Pn cbr -Pi 25 -Pf 0 -Po 0 
s -t 0.104000000 -Hs 0 -Hd -2 -Ni 0 -Nx 601.00 -Ny 400.00 -Nz 0.00 -Ne 999.957000 -Nl AGT -Nw ---  [0.00 0 0] -Is 0.0 -Id 1.0 -It cbr -Il 1000 -If 0 -Ii 82 -Iv 32 -Pn cbr -Pi 26 -Pf 0 -Po 0 
r -t 0.104000000 -Hs 0 -Hd -2 -Ni 0 -Nx 601.00 -Ny 400.00 -Nz 0.00 -Ne 999.957000 -Nl RTR -Nw ---  [0.00 0 0] -Is 0.0 -Id 1.0 -It cbr -Il 1000 -If 0 -Ii 82 -Iv 32 -Pn cbr -Pi 26 -Pf 0 -Po 0 
s -t 0.105167047 -Hs 0 -Hd -1 -Ni 0 -Nx 601.00 -Ny 400.00 -Nz 0.00 -Ne 999.957000 -Nl MAC -Nw ---  [0.00 -1 0] -Is 0.255 -Id 1.255 -It DSR -Il 32 -If 0 -Ii 16 -Iv 32 -P dsr -Ph 1 -Pq 1 -Ps 2 -Pp 0 -Pn 2 -Pl 0 -Pe 0->0 -Pw 0 -Pm 0 -Pc 0 -Pb 0->0 
N -t 0.105168 -n 1 -e 999.957000
s -t 0.108000000 -Hs 0 -Hd -2 -Ni 0 -Nx 601.00 -Ny 400.00 -Nz 0.00 -Ne 999.914000 -Nl AGT -Nw ---  [0.00 0 0] -Is 0.0 -Id 1.0 -It cbr -Il 1000 -If 0 -Ii 84 -Iv 32 -Pn cbr -Pi 27 -Pf 0 -Po 0 
r -t 0.108000000 -Hs 0 -Hd -2 -Ni 0 -Nx 601.00 -Ny 400.00 -Nz 0.00 -Ne 999.914000 -Nl RTR -Nw ---  [0.00 0 0] -Is 0.0 -Id 1.0 -It cbr -Il 1000 -If 0 -Ii 84 -Iv 32 -Pn cbr -Pi 27 -Pf 0 -Po 0 
s -t 0.112000000 -Hs 0 -Hd -2 -Ni 0 -Nx 601.00 -Ny 400.00 -Nz 0.00 -Ne 999.914000 -Nl AGT -Nw ---  [0.00 0 0] -Is 0.0 -Id 1.0 -It cbr -Il 1000 -If 0 -Ii 86 -Iv 32 -Pn cbr -Pi 28 -Pf 0 -Po 0 
r -t 0.112000000 -Hs 0 -Hd -2 -Ni 0 -Nx 601.00 -Ny 400.00 -Nz 0.00 -Ne 999.914000 -Nl RTR -Nw ---  [0.00 0 0] -Is 0.0 -Id 1.0 -It cbr -Il 1000 -If 0 -Ii 86 -Iv 32 -Pn cbr -Pi 28 -Pf 0 -Po 0 
s -t 0.116000000 -Hs 0 -Hd -2 -Ni 0 -Nx 601.00 -Ny 400.00 -Nz 0.00 -Ne 999.914000 -Nl AGT -Nw ---  [0.00 0 0] -Is 0.0 -Id 1.0 -It cbr -Il 1000 -If 0 -Ii 88 -Iv 32 -Pn cbr -Pi 29 -Pf 0 -Po 0 
r -t 0.116000000 -Hs 0 -Hd -2 -Ni 0 -Nx 601.00 -Ny 400.00 -Nz 0.00 -Ne 999.914000 -Nl RTR -Nw ---  [0.00 0 0] -Is 0.0 -Id 1.0 -It cbr -Il 1000 -If 0 -Ii 88 -Iv 32 -Pn cbr -Pi 29 -Pf 0 -Po 0 
s -t 0.120000000 -Hs 0 -Hd -2 -Ni 0 -Nx 601.00 -Ny 400.00 -Nz 0.00 -Ne 999.914000 -Nl AGT -Nw ---  [0.00 0 0] -Is 0.0 -Id 1.0 -It cbr -Il 1000 -If 0 -Ii 90 -Iv 32 -Pn cbr -Pi 30 -Pf 0 -Po 0 
r -t 0.120000000 -Hs 0 -Hd -2 -Ni 0 -Nx 601.00 -Ny 400.00 -Nz 0.00 -Ne 999.914000 -Nl RTR -Nw ---  [0.00 0 0] -Is 0.0 -Id 1.0 -It cbr -Il 1000 -If 0 -Ii 90 -Iv 32 -Pn cbr -Pi 30 -Pf 0 -Po 0 
s -t 0.124000000 -Hs 0 -Hd -2 -Ni 0 -Nx 601.00 -Ny 400.00 -Nz 0.00 -Ne 999.914000 -Nl AGT -Nw ---  [0.00 0 0] -Is 0.0 -Id 1.0 -It cbr -Il 1000 -If 0 -Ii 123 -Iv 32 -Pn cbr -Pi 31 -Pf 0 -Po 0 
r -t 0.124000000 -Hs 0 -Hd -2 -Ni 0 -Nx 601.00 -Ny 400.00 -Nz 0.00 -Ne 999.914000 -Nl RTR -Nw ---  [0.00 0 0] -Is 0.0 -Id 1.0 -It cbr -Il 1000 -If 0 -Ii 123 -Iv 32 -Pn cbr -Pi 31 -Pf 0 -Po 0 
s -t 0.128000000 -Hs 0 -Hd -2 -Ni 0 -Nx 601.00 -Ny 400.00 -Nz 0.00 -Ne 999.914000 -Nl AGT -Nw ---  [0.00 0 0] -Is 0.0 -Id 1.0 -It cbr -Il 1000 -If 0 -Ii 125 -Iv 32 -Pn cbr -Pi 32 -Pf 0 -Po 0 
r -t 0.128000000 -Hs 0 -Hd -2 -Ni 0 -Nx 601.00 -Ny 400.00 -Nz 0.00 -Ne 999.914000 -Nl RTR -Nw ---  [0.00 0 0] -Is 0.0 -Id 1.0 -It cbr -Il 1000 -If 0 -Ii 125 -Iv 32 -Pn cbr -Pi 32 -Pf 0 -Po 0 
s -t 0.132000000 -Hs 0 -Hd -2 -Ni 0 -Nx 601.00 -Ny 400.00 -Nz 0.00 -Ne 999.914000 -Nl AGT -Nw ---  [0.00 0 0] -Is 0.0 -Id 1.0 -It cbr -Il 1000 -If 0 -Ii 127 -Iv 32 -Pn cbr -Pi 33 -Pf 0 -Po 0 
r -t 0.132000000 -Hs 0 -Hd -2 -Ni 0 -Nx 601.00 -Ny 400.00 -Nz 0.00 -Ne 999.914000 -Nl RTR -Nw ---  [0.00 0 0] -Is 0.0 -Id 1.0 -It cbr -Il 1000 -If 0 -Ii 127 -Iv 32 -Pn cbr -Pi 33 -Pf 0 -Po 0 
s -t 0.136000000 -Hs 0 -Hd -2 -Ni 0 -Nx 601.00 -Ny 400.00 -Nz 0.00 -Ne 999.914000 -Nl AGT -Nw ---  [0.00 0 0] -Is 0.0 -Id 1.0 -It cbr -Il 1000 -If 0 -Ii 129 -Iv 32 -Pn cbr -Pi 34 -Pf 0 -Po 0 
r -t 0.136000000 -Hs 0 -Hd -2 -Ni 0 -Nx 601.00 -Ny 400.00 -Nz 0.00 -Ne 999.914000 -Nl RTR -Nw ---  [0.00 0 0] -Is 0.0 -Id 1.0 -It cbr -Il 1000 -If 0 -Ii 129 -Iv 32 -Pn cbr -Pi 34 -Pf 0 -Po 0 
s -t 0.140000000 -Hs 0 -Hd -2 -Ni 0 -Nx 601.00 -Ny 400.00 -Nz 0.00 -Ne 999.914000 -Nl AGT -Nw ---  [0.00 0 0] -Is 0.0 -Id 1.0 -It cbr -Il 1000 -If 0 -Ii 131 -Iv 32 -Pn cbr -Pi 35 -Pf 0 -Po 0 
r -t 0.140000000 -Hs 0 -Hd -2 -Ni 0 -Nx 601.00 -Ny 400.00 -Nz 0.00 -Ne 999.914000 -Nl RTR -Nw ---  [0.00 0 0] -Is 0.0 -Id 1.0 -It cbr -Il 1000 -If 0 -Ii 131 -Iv 32 -Pn cbr -Pi 35 -Pf 0 -Po 0 
s -t 0.144000000 -Hs 0 -Hd -2 -Ni 0 -Nx 601.00 -Ny 400.00 -Nz 0.00 -Ne 999.914000 -Nl AGT -Nw ---  [0.00 0 0] -Is 0.0 -Id 1.0 -It cbr -Il 1000 -If 0 -Ii 133 -Iv 32 -Pn cbr -Pi 36 -Pf 0 -Po 0 
r -t 0.144000000 -Hs 0 -Hd -2 -Ni 0 -Nx 601.00 -Ny 400.00 -Nz 0.00 -Ne 999.914000 -Nl RTR -Nw ---  [0.00 0 0] -Is 0.0 -Id 1.0 -It cbr -Il 1000 -If 0 -Ii 133 -Iv 32 -Pn cbr -Pi 36 -Pf 0 -Po 0 
s -t 0.148000000 -Hs 0 -Hd -2 -Ni 0 -Nx 601.00 -Ny 400.00 -Nz 0.00 -Ne 999.914000 -Nl AGT -Nw ---  [0.00 0 0] -Is 0.0 -Id 1.0 -It cbr -Il 1000 -If 0 -Ii 135 -Iv 32 -Pn cbr -Pi 37 -Pf 0 -Po 0 
r -t 0.148000000 -Hs 0 -Hd -2 -Ni 0 -Nx 601.00 -Ny 400.00 -Nz 0.00 -Ne 999.914000 -Nl RTR -Nw ---  [0.00 0 0] -Is 0.0 -Id 1.0 -It cbr -Il 1000 -If 0 -Ii 135 -Iv 32 -Pn cbr -Pi 37 -Pf 0 -Po 0 
r -t 0.148167713 -Hs 1 -Hd -1 -Ni 1 -Nx 801.00 -Ny 400.00 -Nz 0.00 -Ne 999.957000 -Nl MAC -Nw ---  [0.00 -1 0] -Is 0.255 -Id 1.255 -It DSR -Il 32 -If 0 -Ii 16 -Iv 32 -P dsr -Ph 1 -Pq 1 -Ps 2 -Pp 0 -Pn 2 -Pl 0 -Pe 0->0 -Pw 0 -Pm 0 -Pc 0 -Pb 0->0 
r -t 0.148192713 -Hs 1 -Hd -1 -Ni 1 -Nx 801.00 -Ny 400.00 -Nz 0.00 -Ne 999.957000 -Nl RTR -Nw ---  [0.00 -1 0] -Is 0.255 -Id 1.255 -It DSR -Il 32 -If 0 -Ii 16 -Iv 32 -P dsr -Ph 1 -Pq 1 -Ps 2 -Pp 0 -Pn 2 -Pl 0 -Pe 0->0 -Pw 0 -Pm 0 -Pc 0 -Pb 0->0 
s -t 0.149330796 -Hs 1 -Hd 0 -Ni 1 -Nx 801.00 -Ny 400.00 -Nz 0.00 -Ne 999.957000 -Nl RTR -Nw ---  [0.00 0 0] -Is 1.255 -Id 0.255 -It DSR -Il 44 -If 0 -Ii 137 -Iv 254 -P dsr -Ph 2 -Pq 0 -Ps 2 -Pp 1 -Pn 2 -Pl 2 -Pe 0->1 -Pw 0 -Pm 0 -Pc 0 -Pb 0->0 
d -t 0.149330796 -Hs 1 -Hd 0 -Ni 1 -Nx 801.00 -Ny 400.00 -Nz 0.00 -Ne 999.957000 -Nl IFQ -Nw ARP  [0.00 0 1] -Is 1.255 -Id 0.255 -It DSR -Il 44 -If 0 -Ii 42 -Iv 254 -P dsr -Ph 2 -Pq 0 -Ps 1 -Pp 1 -Pn 1 -Pl 2 -Pe 0->1 -Pw 0 -Pm 0 -Pc 0 -Pb 0->0 
s -t 0.152000000 -Hs 0 -Hd -2 -Ni 0 -Nx 601.00 -Ny 400.00 -Nz 0.00 -Ne 999.914000 -Nl AGT -Nw ---  [0.00 0 0] -Is 0.0 -Id 1.0 -It cbr -Il 1000 -If 0 -Ii 138 -Iv 32 -Pn cbr -Pi 38 -Pf 0 -Po 0 
r -t 0.152000000 -Hs 0 -Hd -2 -Ni 0 -Nx 601.00 -Ny 400.00 -Nz 0.00 -Ne 999.914000 -Nl RTR -Nw ---  [0.00 0 0] -Is 0.0 -Id 1.0 -It cbr -Il 1000 -If 0 -Ii 138 -Iv 32 -Pn cbr -Pi 38 -Pf 0 -Po 0 
s -t 0.156000000 -Hs 0 -Hd -2 -Ni 0 -Nx 601.00 -Ny 400.00 -Nz 0.00 -Ne 999.914000 -Nl AGT -Nw ---  [0.00 0 0] -Is 0.0 -Id 1.0 -It cbr -Il 1000 -If 0 -Ii 140 -Iv 32 -Pn cbr -Pi 39 -Pf 0 -Po 0 
r -t 0.156000000 -Hs 0 -Hd -2 -Ni 0 -Nx 601.00 -Ny 400.00 -Nz 0.00 -Ne 999.914000 -Nl RTR -Nw ---  [0.00 0 0] -Is 0.0 -Id 1.0 -It cbr -Il 1000 -If 0 -Ii 140 -Iv 32 -Pn cbr -Pi 39 -Pf 0 -Po 0 
s -t 0.160000000 -Hs 0 -Hd -2 -Ni 0 -Nx 601.00 -Ny 400.00 -Nz 0.00 -Ne 999.914000 -Nl AGT -Nw ---  [0.00 0 0] -Is 0.0 -Id 1.0 -It cbr -Il 1000 -If 0 -Ii 182 -Iv 32 -Pn cbr -Pi 40 -Pf 0 -Po 0 
r -t 0.160000000 -Hs 0 -Hd -2 -Ni 0 -Nx 601.00 -Ny 400.00 -Nz 0.00 -Ne 999.914000 -Nl RTR -Nw ---  [0.00 0 0] -Is 0.0 -Id 1.0 -It cbr -Il 1000 -If 0 -Ii 182 -Iv 32 -Pn cbr -Pi 40 -Pf 0 -Po 0 
s -t 0.164000000 -Hs 0 -Hd -2 -Ni 0 -Nx 601.00 -Ny 400.00 -Nz 0.00 -Ne 999.914000 -Nl AGT -Nw ---  [0.00 0 0] -Is 0.0 -Id 1.0 -It cbr -Il 1000 -If 0 -Ii 184 -Iv 32 -Pn cbr -Pi 41 -Pf 0 -Po 0 
r -t 0.164000000 -Hs 0 -Hd -2 -Ni 0 -Nx 601.00 -Ny 400.00 -Nz 0.00 -Ne 999.914000 -Nl RTR -Nw ---  [0.00 0 0] -Is 0.0 -Id 1.0 -It cbr -Il 1000 -If 0 -Ii 184 -Iv 32 -Pn cbr -Pi 41 -Pf 0 -Po 0 
s -t 0.168000000 -Hs 0 -Hd -2 -Ni 0 -Nx 601.00 -Ny 400.00 -Nz 0.00 -Ne 999.914000 -Nl AGT -Nw ---  [0.00 0 0] -Is 0.0 -Id 1.0 -It cbr -Il 1000 -If 0 -Ii 186 -Iv 32 -Pn cbr -Pi 42 -Pf 0 -Po 0 
r -t 0.168000000 -Hs 0 -Hd -2 -Ni 0 -Nx 601.00 -Ny 400.00 -Nz 0.00 -Ne 999.914000 -Nl RTR -Nw ---  [0.00 0 0] -Is 0.0 -Id 1.0 -It cbr -Il 1000 -If 0 -Ii 186 -Iv 32 -Pn cbr -Pi 42 -Pf 0 -Po 0 
s -t 0.170167713 -Hs 1 -Hd -2 -Ni 1 -Nx 801.00 -Ny 400.00 -Nz 0.00 -Ne 999.957000 -Nl MAC -Nw ---  [0.00 -1 1] -P arp -Po REQUEST -Pms 1 -Ps 1 -Pmd 0 -Pd 0 
N -t 0.170168 -n 0 -e 999.892500
s -t 0.172000000 -Hs 0 -Hd -2 -Ni 0 -Nx 601.00 -Ny 400.00 -Nz 0.00 -Ne 999.892500 -Nl AGT -Nw ---  [0.00 0 0] -Is 0.0 -Id 1.0 -It cbr -Il 1000 -If 0 -Ii 188 -Iv 32 -Pn cbr -Pi 43 -Pf 0 -Po 0 
r -t 0.172000000 -Hs 0 -Hd -2 -Ni 0 -Nx 601.00 -Ny 400.00 -Nz 0.00 -Ne 999.892500 -Nl RTR -Nw ---  [0.00 0 0] -Is 0.0 -Id 1.0 -It cbr -Il 1000 -If 0 -Ii 188 -Iv 32 -Pn cbr -Pi 43 -Pf 0 -Po 0 
s -t 0.176000000 -Hs 0 -Hd -2 -Ni 0 -Nx 601.00 -Ny 400.00 -Nz 0.00 -Ne 999.892500 -Nl AGT -Nw ---  [0.00 0 0] -Is 0.0 -Id 1.0 -It cbr -Il 1000 -If 0 -Ii 190 -Iv 32 -Pn cbr -Pi 44 -Pf 0 -Po 0 
r -t 0.176000000 -Hs 0 -Hd -2 -Ni 0 -Nx 601.00 -Ny 400.00 -Nz 0.00 -Ne 999.892500 -Nl RTR -Nw ---  [0.00 0 0] -Is 0.0 -Id 1.0 -It cbr -Il 1000 -If 0 -Ii 190 -Iv 32 -Pn cbr -Pi 44 -Pf 0 -Po 0 
s -t 0.180000000 -Hs 0 -Hd -2 -Ni 0 -Nx 601.00 -Ny 400.00 -Nz 0.00 -Ne 999.892500 -Nl AGT -Nw ---  [0.00 0 0] -Is 0.0 -Id 1.0 -It cbr -Il 1000 -If 0 -Ii 192 -Iv 32 -Pn cbr -Pi 45 -Pf 0 -Po 0 
r -t 0.180000000 -Hs 0 -Hd -2 -Ni 0 -Nx 601.00 -Ny 400.00 -Nz 0.00 -Ne 999.892500 -Nl RTR -Nw ---  [0.00 0 0] -Is 0.0 -Id 1.0 -It cbr -Il 1000 -If 0 -Ii 192 -Iv 32 -Pn cbr -Pi 45 -Pf 0 -Po 0 
s -t 0.184000000 -Hs 0 -Hd -2 -Ni 0 -Nx 601.00 -Ny 400.00 -Nz 0.00 -Ne 999.892500 -Nl AGT -Nw ---  [0.00 0 0] -Is 0.0 -Id 1.0 -It cbr -Il 1000 -If 0 -Ii 194 -Iv 32 -Pn cbr -Pi 46 -Pf 0 -Po 0 
r -t 0.184000000 -Hs 0 -Hd -2 -Ni 0 -Nx 601.00 -Ny 400.00 -Nz 0.00 -Ne 999.892500 -Nl RTR -Nw ---  [0.00 0 0] -Is 0.0 -Id 1.0 -It cbr -Il 1000 -If 0 -Ii 194 -Iv 32 -Pn cbr -Pi 46 -Pf 0 -Po 0 
s -t 0.188000000 -Hs 0 -Hd -2 -Ni 0 -Nx 601.00 -Ny 400.00 -Nz 0.00 -Ne 999.892500 -Nl AGT -Nw ---  [0.00 0 0] -Is 0.0 -Id 1.0 -It cbr -Il 1000 -If 0 -Ii 196 -Iv 32 -Pn cbr -Pi 47 -Pf 0 -Po 0 
r -t 0.188000000 -Hs 0 -Hd -2 -Ni 0 -Nx 601.00 -Ny 400.00 -Nz 0.00 -Ne 999.892500 -Nl RTR -Nw ---  [0.00 0 0] -Is 0.0 -Id 1.0 -It cbr -Il 1000 -If 0 -Ii 196 -Iv 32 -Pn cbr -Pi 47 -Pf 0 -Po 0 
s -t 0.192000000 -Hs 0 -Hd -2 -Ni 0 -Nx 601.00 -Ny 400.00 -Nz 0.00 -Ne 999.892500 -Nl AGT -Nw ---  [0.00 0 0] -Is 0.0 -Id 1.0 -It cbr -Il 1000 -If 0 -Ii 198 -Iv 32 -Pn cbr -Pi 48 -Pf 0 -Po 0 
r -t 0.192000000 -Hs 0 -Hd -2 -Ni 0 -Nx 601.00 -Ny 400.00 -Nz 0.00 -Ne 999.892500 -Nl RTR -Nw ---  [0.00 0 0] -Is 0.0 -Id 1.0 -It cbr -Il 1000 -If 0 -Ii 198 -Iv 32 -Pn cbr -Pi 48 -Pf 0 -Po 0 
s -t 0.196000000 -Hs 0 -Hd -2 -Ni 0 -Nx 601.00 -Ny 400.00 -Nz 0.00 -Ne 999.892500 -Nl AGT -Nw ---  [0.00 0 0] -Is 0.0 -Id 1.0 -It cbr -Il 1000 -If 0 -Ii 200 -Iv 32 -Pn cbr -Pi 49 -Pf 0 -Po 0 
r -t 0.196000000 -Hs 0 -Hd -2 -Ni 0 -Nx 601.00 -Ny 400.00 -Nz 0.00 -Ne 999.892500 -Nl RTR -Nw ---  [0.00 0 0] -Is 0.0 -Id 1.0 -It cbr -Il 1000 -If 0 -Ii 200 -Iv 32 -Pn cbr -Pi 49 -Pf 0 -Po 0 
s -t 0.200000000 -Hs 0 -Hd -2 -Ni 0 -Nx 601.00 -Ny 400.00 -Nz 0.00 -Ne 999.892500 -Nl AGT -Nw ---  [0.00 0 0] -Is 0.0 -Id 1.0 -It cbr -Il 1000 -If 0 -Ii 202 -Iv 32 -Pn cbr -Pi 50 -Pf 0 -Po 0 
r -t 0.200000000 -Hs 0 -Hd -2 -Ni 0 -Nx 601.00 -Ny 400.00 -Nz 0.00 -Ne 999.892500 -Nl RTR -Nw ---  [0.00 0 0] -Is 0.0 -Id 1.0 -It cbr -Il 1000 -If 0 -Ii 202 -Iv 32 -Pn cbr -Pi 50 -Pf 0 -Po 0 
s -t 0.204000000 -Hs 0 -Hd -2 -Ni 0 -Nx 601.00 -Ny 400.00 -Nz 0.00 -Ne 999.892500 -Nl AGT -Nw ---  [0.00 0 0] -Is 0.0 -Id 1.0 -It cbr -Il 1000 -If 0 -Ii 204 -Iv 32 -Pn cbr -Pi 51 -Pf 0 -Po 0 
r -t 0.204000000 -Hs 0 -Hd -2 -Ni 0 -Nx 601.00 -Ny 400.00 -Nz 0.00 -Ne 999.892500 -Nl RTR -Nw ---  [0.00 0 0] -Is 0.0 -Id 1.0 -It cbr -Il 1000 -If 0 -Ii 204 -Iv 32 -Pn cbr -Pi 51 -Pf 0 -Po 0 
s -t 0.208000000 -Hs 0 -Hd -2 -Ni 0 -Nx 601.00 -Ny 400.00 -Nz 0.00 -Ne 999.892500 -Nl AGT -Nw ---  [0.00 0 0] -Is 0.0 -Id 1.0 -It cbr -Il 1000 -If 0 -Ii 206 -Iv 32 -Pn cbr -Pi 52 -Pf 0 -Po 0 
r -t 0.208000000 -Hs 0 -Hd -2 -Ni 0 -Nx 601.00 -Ny 400.00 -Nz 0.00 -Ne 999.892500 -Nl RTR -Nw ---  [0.00 0 0] -Is 0.0 -Id 1.0 -It cbr -Il 1000 -If 0 -Ii 206 -Iv 32 -Pn cbr -Pi 52 -Pf 0 -Po 0 
s -t 0.212000000 -Hs 0 -Hd -2 -Ni 0 -Nx 601.00 -Ny 400.00 -Nz 0.00 -Ne 999.892500 -Nl AGT -Nw ---  [0.00 0 0] -Is 0.0 -Id 1.0 -It cbr -Il 1000 -If 0 -Ii 208 -Iv 32 -Pn cbr -Pi 53 -Pf 0 -Po 0 
r -t 0.212000000 -Hs 0 -Hd -2 -Ni 0 -Nx 601.00 -Ny 400.00 -Nz 0.00 -Ne 999.892500 -Nl RTR -Nw ---  [0.00 0 0] -Is 0.0 -Id 1.0 -It cbr -Il 1000 -If 0 -Ii 208 -Iv 32 -Pn cbr -Pi 53 -Pf 0 -Po 0 
r -t 0.213168380 -Hs 0 -Hd -2 -Ni 0 -Nx 601.00 -Ny 400.00 -Nz 0.00 -Ne 999.892500 -Nl MAC -Nw ---  [0.00 -1 1] -P arp -Po REQUEST -Pms 1 -Ps 1 -Pmd 0 -Pd 0 
s -t 0.216000000 -Hs 0 -Hd -2 -Ni 0 -Nx 601.00 -Ny 400.00 -Nz 0.00 -Ne 999.892500 -Nl AGT -Nw ---  [0.00 0 0] -Is 0.0 -Id 1.0 -It cbr -Il 1000 -If 0 -Ii 264 -Iv 32 -Pn cbr -Pi 54 -Pf 0 -Po 0 
r -t 0.216000000 -Hs 0 -Hd -2 -Ni 0 -Nx 601.00 -Ny 400.00 -Nz 0.00 -Ne 999.892500 -Nl RTR -Nw ---  [0.00 0 0] -Is 0.0 -Id 1.0 -It cbr -Il 1000 -If 0 -Ii 264 -Iv 32 -Pn cbr -Pi 54 -Pf 0 -Po 0 
s -t 0.220000000 -Hs 0 -Hd -2 -Ni 0 -Nx 601.00 -Ny 400.00 -Nz 0.00 -Ne 999.892500 -Nl AGT -Nw ---  [0.00 0 0] -Is 0.0 -Id 1.0 -It cbr -Il 1000 -If 0 -Ii 266 -Iv 32 -Pn cbr -Pi 55 -Pf 0 -Po 0 
r -t 0.220000000 -Hs 0 -Hd -2 -Ni 0 -Nx 601.00 -Ny 400.00 -Nz 0.00 -Ne 999.892500 -Nl RTR -Nw ---  [0.00 0 0] -Is 0.0 -Id 1.0 -It cbr -Il 1000 -If 0 -Ii 266 -Iv 32 -Pn cbr -Pi 55 -Pf 0 -Po 0 
s -t 0.224000000 -Hs 0 -Hd -2 -Ni 0 -Nx 601.00 -Ny 400.00 -Nz 0.00 -Ne 999.892500 -Nl AGT -Nw ---  [0.00 0 0] -Is 0.0 -Id 1.0 -It cbr -Il 1000 -If 0 -Ii 268 -Iv 32 -Pn cbr -Pi 56 -Pf 0 -Po 0 
r -t 0.224000000 -Hs 0 -Hd -2 -Ni 0 -Nx 601.00 -Ny 400.00 -Nz 0.00 -Ne 999.892500 -Nl RTR -Nw ---  [0.00 0 0] -Is 0.0 -Id 1.0 -It cbr -Il 1000 -If 0 -Ii 268 -Iv 32 -Pn cbr -Pi 56 -Pf 0 -Po 0 
s -t 0.225167713 -Hs 1 -Hd -2 -Ni 1 -Nx 801.00 -Ny 400.00 -Nz 0.00 -Ne 999.914000 -Nl MAC -Nw ---  [0.00 -1 1] -P arp -Po REQUEST -Pms 1 -Ps 1 -Pmd 0 -Pd 0 
N -t 0.225168 -n 0 -e 999.871000
s -t 0.228000000 -Hs 0 -Hd -2 -Ni 0 -Nx 601.00 -Ny 400.00 -Nz 0.00 -Ne 999.871000 -Nl AGT -Nw ---  [0.00 0 0] -Is 0.0 -Id 1.0 -It cbr -Il 1000 -If 0 -Ii 270 -Iv 32 -Pn cbr -Pi 57 -Pf 0 -Po 0 
r -t 0.228000000 -Hs 0 -Hd -2 -Ni 0 -Nx 601.00 -Ny 400.00 -Nz 0.00 -Ne 999.871000 -Nl RTR -Nw ---  [0.00 0 0] -Is 0.0 -Id 1.0 -It cbr -Il 1000 -If 0 -Ii 270 -Iv 32 -Pn cbr -Pi 57 -Pf 0 -Po 0 
s -t 0.232000000 -Hs 0 -Hd -2 -Ni 0 -Nx 601.00 -Ny 400.00 -Nz 0.00 -Ne 999.871000 -Nl AGT -Nw ---  [0.00 0 0] -Is 0.0 -Id 1.0 -It cbr -Il 1000 -If 0 -Ii 272 -Iv 32 -Pn cbr -Pi 58 -Pf 0 -Po 0 
r -t 0.232000000 -Hs 0 -Hd -2 -Ni 0 -Nx 601.00 -Ny 400.00 -Nz 0.00 -Ne 999.871000 -Nl RTR -Nw ---  [0.00 0 0] -Is 0.0 -Id 1.0 -It cbr -Il 1000 -If 0 -Ii 272 -Iv 32 -Pn cbr -Pi 58 -Pf 0 -Po 0 
s -t 0.236000000 -Hs 0 -Hd -2 -Ni 0 -Nx 601.00 -Ny 400.00 -Nz 0.00 -Ne 999.871000 -Nl AGT -Nw ---  [0.00 0 0] -Is 0.0 -Id 1.0 -It cbr -Il 1000 -If 0 -Ii 274 -Iv 32 -Pn cbr -Pi 59 -Pf 0 -Po 0 
r -t 0.236000000 -Hs 0 -Hd -2 -Ni 0 -Nx 601.00 -Ny 400.00 -Nz 0.00 -Ne 999.871000 -Nl RTR -Nw ---  [0.00 0 0] -Is 0.0 -Id 1.0 -It cbr -Il 1000 -If 0 -Ii 274 -Iv 32 -Pn cbr -Pi 59 -Pf 0 -Po 0 
s -t 0.240000000 -Hs 0 -Hd -2 -Ni 0 -Nx 601.00 -Ny 400.00 -Nz 0.00 -Ne 999.871000 -Nl AGT -Nw ---  [0.00 0 0] -Is 0.0 -Id 1.0 -It cbr -Il 1000 -If 0 -Ii 276 -Iv 32 -Pn cbr -Pi 60 -Pf 0 -Po 0 
r -t 0.240000000 -Hs 0 -Hd -2 -Ni 0 -Nx 601.00 -Ny 400.00 -Nz 0.00 -Ne 999.871000 -Nl RTR -Nw ---  [0.00 0 0] -Is 0.0 -Id 1.0 -It cbr -Il 1000 -If 0 -Ii 276 -Iv 32 -Pn cbr -Pi 60 -Pf 0 -Po 0 
s -t 0.244000000 -Hs 0 -Hd -2 -Ni 0 -Nx 601.00 -Ny 400.00 -Nz 0.00 -Ne 999.871000 -Nl AGT -Nw ---  [0.00 0 0] -Is 0.0 -Id 1.0 -It cbr -Il 1000 -If 0 -Ii 278 -Iv 32 -Pn cbr -Pi 61 -Pf 0 -Po 0 
r -t 0.244000000 -Hs 0 -Hd -2 -Ni 0 -Nx 601.00 -Ny 400.00 -Nz 0.00 -Ne 999.871000 -Nl RTR -Nw ---  [0.00 0 0] -Is 0.0 -Id 1.0 -It cbr -Il 1000 -If 0 -Ii 278 -Iv 32 -Pn cbr -Pi 61 -Pf 0 -Po 0 
s -t 0.248000000 -Hs 0 -Hd -2 -Ni 0 -Nx 601.00 -Ny 400.00 -Nz 0.00 -Ne 999.871000 -Nl AGT -Nw ---  [0.00 0 0] -Is 0.0 -Id 1.0 -It cbr -Il 1000 -If 0 -Ii 280 -Iv 32 -Pn cbr -Pi 62 -Pf 0 -Po 0 
r -t 0.248000000 -Hs 0 -Hd -2 -Ni 0 -Nx 601.00 -Ny 400.00 -Nz 0.00 -Ne 999.871000 -Nl RTR -Nw ---  [0.00 0 0] -Is 0.0 -Id 1.0 -It cbr -Il 1000 -If 0 -Ii 280 -Iv 32 -Pn cbr -Pi 62 -Pf 0 -Po 0 
s -t 0.252000000 -Hs 0 -Hd -2 -Ni 0 -Nx 601.00 -Ny 400.00 -Nz 0.00 -Ne 999.871000 -Nl AGT -Nw ---  [0.00 0 0] -Is 0.0 -Id 1.0 -It cbr -Il 1000 -If 0 -Ii 282 -Iv 32 -Pn cbr -Pi 63 -Pf 0 -Po 0 
r -t 0.252000000 -Hs 0 -Hd -2 -Ni 0 -Nx 601.00 -Ny 400.00 -Nz 0.00 -Ne 999.871000 -Nl RTR -Nw ---  [0.00 0 0] -Is 0.0 -Id 1.0 -It cbr -Il 1000 -If 0 -Ii 282 -Iv 32 -Pn cbr -Pi 63 -Pf 0 -Po 0 
s -t 0.256000000 -Hs 0 -Hd -2 -Ni 0 -Nx 601.00 -Ny 400.00 -Nz 0.00 -Ne 999.871000 -Nl AGT -Nw ---  [0.00 0 0] -Is 0.0 -Id 1.0 -It cbr -Il 1000 -If 0 -Ii 284 -Iv 32 -Pn cbr -Pi 64 -Pf 0 -Po 0 
r -t 0.256000000 -Hs 0 -Hd -2 -Ni 0 -Nx 601.00 -Ny 400.00 -Nz 0.00 -Ne 999.871000 -Nl RTR -Nw ---  [0.00 0 0] -Is 0.0 -Id 1.0 -It cbr -Il 1000 -If 0 -Ii 284 -Iv 32 -Pn cbr -Pi 64 -Pf 0 -Po 0 
Ssb 0.25600 _0_ dropped 0 -> 1
d -t 0.256000000 -Hs 0 -Hd -2 -Ni 0 -Nx 601.00 -Ny 400.00 -Nz 0.00 -Ne 999.871000 -Nl RTR -Nw TOUT  [0.00 0 0] -Is 0.0 -Id 1.0 -It cbr -Il 1020 -If 0 -Ii 0 -Iv 32 -Pn cbr -Pi 0 -Pf 0 -Po 0 
s -t 0.260000000 -Hs 0 -Hd -2 -Ni 0 -Nx 601.00 -Ny 400.00 -Nz 0.00 -Ne 999.871000 -Nl AGT -Nw ---  [0.00 0 0] -Is 0.0 -Id 1.0 -It cbr -Il 1000 -If 0 -Ii 286 -Iv 32 -Pn cbr -Pi 65 -Pf 0 -Po 0 
r -t 0.260000000 -Hs 0 -Hd -2 -Ni 0 -Nx 601.00 -Ny 400.00 -Nz 0.00 -Ne 999.871000 -Nl RTR -Nw ---  [0.00 0 0] -Is 0.0 -Id 1.0 -It cbr -Il 1000 -If 0 -Ii 286 -Iv 32 -Pn cbr -Pi 65 -Pf 0 -Po 0 
Ssb 0.26000 _0_ dropped 0 -> 1
d -t 0.260000000 -Hs 0 -Hd -2 -Ni 0 -Nx 601.00 -Ny 400.00 -Nz 0.00 -Ne 999.871000 -Nl RTR -Nw TOUT  [0.00 0 0] -Is 0.0 -Id 1.0 -It cbr -Il 1020 -If 0 -Ii 2 -Iv 32 -Pn cbr -Pi 1 -Pf 0 -Po 0 
s -t 0.264000000 -Hs 0 -Hd -2 -Ni 0 -Nx 601.00 -Ny 400.00 -Nz 0.00 -Ne 999.871000 -Nl AGT -Nw ---  [0.00 0 0] -Is 0.0 -Id 1.0 -It cbr -Il 1000 -If 0 -Ii 288 -Iv 32 -Pn cbr -Pi 66 -Pf 0 -Po 0 
r -t 0.264000000 -Hs 0 -Hd -2 -Ni 0 -Nx 601.00 -Ny 400.00 -Nz 0.00 -Ne 999.871000 -Nl RTR -Nw ---  [0.00 0 0] -Is 0.0 -Id 1.0 -It cbr -Il 1000 -If 0 -Ii 288 -Iv 32 -Pn cbr -Pi 66 -Pf 0 -Po 0 
Ssb 0.26400 _0_ dropped 0 -> 1
d -t 0.264000000 -Hs 0 -Hd -2 -Ni 0 -Nx 601.00 -Ny 400.00 -Nz 0.00 -Ne 999.871000 -Nl RTR -Nw TOUT  [0.00 0 0] -Is 0.0 -Id 1.0 -It cbr -Il 1020 -If 0 -Ii 4 -Iv 32 -Pn cbr -Pi 2 -Pf 0 -Po 0 